  20  20   0   0
  0.1295360E+02  0.6393987E-09  0.9818587E-09  0.4199258E-09  0.5000000E-15
  1.000000000000000E-004
  CAR 
 unknown system                          
      9.00200196     -1.42122282  301      6.54557670      1.00000000
     -1.421  0.0000E+00  0.0000E+00
     -1.386  0.0000E+00  0.0000E+00
     -1.352  0.0000E+00  0.0000E+00
     -1.317  0.0000E+00  0.0000E+00
     -1.282  0.0000E+00  0.0000E+00
     -1.248  0.0000E+00  0.0000E+00
     -1.213  0.0000E+00  0.0000E+00
     -1.178  0.0000E+00  0.0000E+00
     -1.143  0.0000E+00  0.0000E+00
     -1.109  0.0000E+00  0.0000E+00
     -1.074  0.0000E+00  0.0000E+00
     -1.039  0.0000E+00  0.0000E+00
     -1.004  0.5326E-18  0.1850E-19
     -0.970  0.4207E-16  0.1480E-17
     -0.935  0.1771E-14  0.6302E-16
     -0.900  0.5920E-13  0.2120E-14
     -0.865  0.1558E-11  0.5627E-13
     -0.831  0.3233E-10  0.1179E-11
     -0.796  0.5285E-09  0.1954E-10
     -0.761  0.6810E-08  0.2561E-09
     -0.726  0.6918E-07  0.2660E-08
     -0.692  0.5542E-06  0.2191E-07
     -0.657  0.3501E-05  0.1435E-06
     -0.622  0.1744E-04  0.7496E-06
     -0.587  0.6858E-04  0.3132E-05
     -0.553  0.2127E-03  0.1052E-04
     -0.518  0.5206E-03  0.2861E-04
     -0.483  0.1006E-02  0.6355E-04
     -0.448  0.1533E-02  0.1168E-03
     -0.414  0.1844E-02  0.1809E-03
     -0.379  0.1752E-02  0.2418E-03
     -0.344  0.1313E-02  0.2874E-03
     -0.309  0.7771E-03  0.3144E-03
     -0.275  0.3643E-03  0.3270E-03
     -0.240  0.1426E-03  0.3320E-03
     -0.205  0.7788E-04  0.3347E-03
     -0.170  0.1430E-03  0.3397E-03
     -0.136  0.3655E-03  0.3524E-03
     -0.101  0.7800E-03  0.3795E-03
     -0.066  0.1323E-02  0.4254E-03
     -0.031  0.1788E-02  0.4876E-03
      0.003  0.1969E-02  0.5560E-03
      0.038  0.1875E-02  0.6211E-03
      0.073  0.1751E-02  0.6820E-03
      0.108  0.1800E-02  0.7445E-03
      0.142  0.1945E-02  0.8121E-03
      0.177  0.1919E-02  0.8788E-03
      0.212  0.1578E-02  0.9336E-03
      0.246  0.1045E-02  0.9700E-03
      0.281  0.5641E-03  0.9896E-03
      0.316  0.2978E-03  0.9999E-03
      0.351  0.2948E-03  0.1010E-02
      0.385  0.5560E-03  0.1029E-02
      0.420  0.1038E-02  0.1066E-02
      0.455  0.1592E-02  0.1121E-02
      0.490  0.2013E-02  0.1191E-02
      0.524  0.2264E-02  0.1269E-02
      0.559  0.2614E-02  0.1360E-02
      0.594  0.3404E-02  0.1479E-02
      0.629  0.4562E-02  0.1637E-02
      0.663  0.5457E-02  0.1827E-02
      0.698  0.5417E-02  0.2015E-02
      0.733  0.4397E-02  0.2168E-02
      0.768  0.3065E-02  0.2274E-02
      0.802  0.2250E-02  0.2352E-02
      0.837  0.2387E-02  0.2435E-02
      0.872  0.3379E-02  0.2553E-02
      0.907  0.4753E-02  0.2718E-02
      0.941  0.5903E-02  0.2923E-02
      0.976  0.6325E-02  0.3143E-02
      1.011  0.5840E-02  0.3345E-02
      1.046  0.4753E-02  0.3511E-02
      1.080  0.3754E-02  0.3641E-02
      1.115  0.3477E-02  0.3762E-02
      1.150  0.4003E-02  0.3901E-02
      1.185  0.4798E-02  0.4068E-02
      1.219  0.5182E-02  0.4248E-02
      1.254  0.4910E-02  0.4418E-02
      1.289  0.4369E-02  0.4570E-02
      1.324  0.4260E-02  0.4718E-02
      1.358  0.5058E-02  0.4894E-02
      1.393  0.6622E-02  0.5124E-02
      1.428  0.8285E-02  0.5412E-02
      1.463  0.9336E-02  0.5736E-02
      1.497  0.9483E-02  0.6066E-02
      1.532  0.8873E-02  0.6374E-02
      1.567  0.7809E-02  0.6645E-02
      1.602  0.6528E-02  0.6872E-02
      1.636  0.5215E-02  0.7053E-02
      1.671  0.4113E-02  0.7196E-02
      1.706  0.3528E-02  0.7319E-02
      1.740  0.3699E-02  0.7447E-02
      1.775  0.4573E-02  0.7606E-02
      1.810  0.5750E-02  0.7806E-02
      1.845  0.6732E-02  0.8040E-02
      1.879  0.7234E-02  0.8291E-02
      1.914  0.7270E-02  0.8544E-02
      1.949  0.7027E-02  0.8788E-02
      1.984  0.6650E-02  0.9019E-02
      2.018  0.6105E-02  0.9231E-02
      2.053  0.5328E-02  0.9416E-02
      2.088  0.4611E-02  0.9576E-02
      2.123  0.4725E-02  0.9740E-02
      2.157  0.6421E-02  0.9964E-02
      2.192  0.9593E-02  0.1030E-01
      2.227  0.1287E-01  0.1074E-01
      2.262  0.1433E-01  0.1124E-01
      2.296  0.1291E-01  0.1169E-01
      2.331  0.9349E-02  0.1202E-01
      2.366  0.5444E-02  0.1220E-01
      2.401  0.2646E-02  0.1230E-01
      2.435  0.1401E-02  0.1235E-01
      2.470  0.1542E-02  0.1240E-01
      2.505  0.2826E-02  0.1250E-01
      2.540  0.5037E-02  0.1267E-01
      2.574  0.7784E-02  0.1294E-01
      2.609  0.1038E-01  0.1330E-01
      2.644  0.1194E-01  0.1372E-01
      2.679  0.1189E-01  0.1413E-01
      2.713  0.1041E-01  0.1449E-01
      2.748  0.8629E-02  0.1479E-01
      2.783  0.8029E-02  0.1507E-01
      2.818  0.9600E-02  0.1540E-01
      2.852  0.1327E-01  0.1587E-01
      2.887  0.1800E-01  0.1649E-01
      2.922  0.2252E-01  0.1727E-01
      2.957  0.2601E-01  0.1818E-01
      2.991  0.2840E-01  0.1916E-01
      3.026  0.3003E-01  0.2021E-01
      3.061  0.3124E-01  0.2129E-01
      3.096  0.3211E-01  0.2241E-01
      3.130  0.3254E-01  0.2354E-01
      3.165  0.3273E-01  0.2468E-01
      3.200  0.3321E-01  0.2583E-01
      3.234  0.3424E-01  0.2702E-01
      3.269  0.3507E-01  0.2824E-01
      3.304  0.3464E-01  0.2944E-01
      3.339  0.3313E-01  0.3059E-01
      3.373  0.3233E-01  0.3172E-01
      3.408  0.3406E-01  0.3290E-01
      3.443  0.3838E-01  0.3423E-01
      3.478  0.4366E-01  0.3575E-01
      3.512  0.4800E-01  0.3742E-01
      3.547  0.5045E-01  0.3917E-01
      3.582  0.5104E-01  0.4094E-01
      3.617  0.5023E-01  0.4269E-01
      3.651  0.4881E-01  0.4438E-01
      3.686  0.4825E-01  0.4606E-01
      3.721  0.5030E-01  0.4781E-01
      3.756  0.5536E-01  0.4973E-01
      3.790  0.6164E-01  0.5187E-01
      3.825  0.6629E-01  0.5418E-01
      3.860  0.6760E-01  0.5653E-01
      3.895  0.6610E-01  0.5882E-01
      3.929  0.6390E-01  0.6104E-01
      3.964  0.6308E-01  0.6323E-01
      3.999  0.6446E-01  0.6547E-01
      4.034  0.6713E-01  0.6781E-01
      4.068  0.6913E-01  0.7021E-01
      4.103  0.6856E-01  0.7259E-01
      4.138  0.6450E-01  0.7483E-01
      4.173  0.5736E-01  0.7682E-01
      4.207  0.4869E-01  0.7852E-01
      4.242  0.4048E-01  0.7992E-01
      4.277  0.3447E-01  0.8112E-01
      4.312  0.3156E-01  0.8222E-01
      4.346  0.3125E-01  0.8330E-01
      4.381  0.3155E-01  0.8440E-01
      4.416  0.3010E-01  0.8544E-01
      4.451  0.2634E-01  0.8636E-01
      4.485  0.2262E-01  0.8715E-01
      4.520  0.2268E-01  0.8793E-01
      4.555  0.2865E-01  0.8893E-01
      4.590  0.3927E-01  0.9029E-01
      4.624  0.5068E-01  0.9205E-01
      4.659  0.5910E-01  0.9411E-01
      4.694  0.6299E-01  0.9630E-01
      4.728  0.6348E-01  0.9850E-01
      4.763  0.6310E-01  0.1007E+00
      4.798  0.6386E-01  0.1029E+00
      4.833  0.6590E-01  0.1052E+00
      4.867  0.6792E-01  0.1076E+00
      4.902  0.6904E-01  0.1100E+00
      4.937  0.6950E-01  0.1124E+00
      4.972  0.6946E-01  0.1148E+00
      5.006  0.6821E-01  0.1172E+00
      5.041  0.6497E-01  0.1194E+00
      5.076  0.6028E-01  0.1215E+00
      5.111  0.5615E-01  0.1235E+00
      5.145  0.5454E-01  0.1254E+00
      5.180  0.5579E-01  0.1273E+00
      5.215  0.5854E-01  0.1293E+00
      5.250  0.6134E-01  0.1315E+00
      5.284  0.6379E-01  0.1337E+00
      5.319  0.6618E-01  0.1360E+00
      5.354  0.6859E-01  0.1384E+00
      5.389  0.7098E-01  0.1408E+00
      5.423  0.7355E-01  0.1434E+00
      5.458  0.7623E-01  0.1460E+00
      5.493  0.7805E-01  0.1487E+00
      5.528  0.7763E-01  0.1514E+00
      5.562  0.7452E-01  0.1540E+00
      5.597  0.6971E-01  0.1564E+00
      5.632  0.6497E-01  0.1587E+00
      5.667  0.6173E-01  0.1609E+00
      5.701  0.6080E-01  0.1630E+00
      5.736  0.6241E-01  0.1651E+00
      5.771  0.6604E-01  0.1674E+00
      5.806  0.7012E-01  0.1699E+00
      5.840  0.7269E-01  0.1724E+00
      5.875  0.7271E-01  0.1749E+00
      5.910  0.7070E-01  0.1774E+00
      5.945  0.6831E-01  0.1797E+00
      5.979  0.6717E-01  0.1821E+00
      6.014  0.6805E-01  0.1844E+00
      6.049  0.7083E-01  0.1869E+00
      6.083  0.7472E-01  0.1895E+00
      6.118  0.7833E-01  0.1922E+00
      6.153  0.7987E-01  0.1950E+00
      6.188  0.7819E-01  0.1977E+00
      6.222  0.7386E-01  0.2003E+00
      6.257  0.6862E-01  0.2027E+00
      6.292  0.6405E-01  0.2049E+00
      6.327  0.6073E-01  0.2070E+00
      6.361  0.5827E-01  0.2090E+00
      6.396  0.5572E-01  0.2110E+00
      6.431  0.5241E-01  0.2128E+00
      6.466  0.4866E-01  0.2145E+00
      6.500  0.4544E-01  0.2160E+00
      6.535  0.4340E-01  0.2176E+00
      6.570  0.4247E-01  0.2190E+00
      6.605  0.4224E-01  0.2205E+00
      6.639  0.4185E-01  0.2220E+00
      6.674  0.3999E-01  0.2233E+00
      6.709  0.3594E-01  0.2246E+00
      6.744  0.3057E-01  0.2257E+00
      6.778  0.2587E-01  0.2266E+00
      6.813  0.2344E-01  0.2274E+00
      6.848  0.2347E-01  0.2282E+00
      6.883  0.2520E-01  0.2291E+00
      6.917  0.2790E-01  0.2300E+00
      6.952  0.3126E-01  0.2311E+00
      6.987  0.3470E-01  0.2323E+00
      7.022  0.3689E-01  0.2336E+00
      7.056  0.3667E-01  0.2349E+00
      7.091  0.3428E-01  0.2361E+00
      7.126  0.3146E-01  0.2372E+00
      7.161  0.3023E-01  0.2382E+00
      7.195  0.3176E-01  0.2393E+00
      7.230  0.3575E-01  0.2406E+00
      7.265  0.4055E-01  0.2420E+00
      7.300  0.4433E-01  0.2435E+00
      7.334  0.4641E-01  0.2451E+00
      7.369  0.4784E-01  0.2468E+00
      7.404  0.5027E-01  0.2485E+00
      7.439  0.5402E-01  0.2504E+00
      7.473  0.5742E-01  0.2524E+00
      7.508  0.5831E-01  0.2544E+00
      7.543  0.5610E-01  0.2564E+00
      7.577  0.5223E-01  0.2582E+00
      7.612  0.4864E-01  0.2599E+00
      7.647  0.4617E-01  0.2615E+00
      7.682  0.4461E-01  0.2630E+00
      7.716  0.4338E-01  0.2645E+00
      7.751  0.4178E-01  0.2660E+00
      7.786  0.3899E-01  0.2673E+00
      7.821  0.3446E-01  0.2685E+00
      7.855  0.2850E-01  0.2695E+00
      7.890  0.2209E-01  0.2703E+00
      7.925  0.1628E-01  0.2709E+00
      7.960  0.1167E-01  0.2713E+00
      7.994  0.8255E-02  0.2716E+00
      8.029  0.5677E-02  0.2718E+00
      8.064  0.3612E-02  0.2719E+00
      8.099  0.2008E-02  0.2720E+00
      8.133  0.9344E-03  0.2720E+00
      8.168  0.3544E-03  0.2720E+00
      8.203  0.1080E-03  0.2720E+00
      8.238  0.2625E-04  0.2720E+00
      8.272  0.5065E-05  0.2720E+00
      8.307  0.7746E-06  0.2720E+00
      8.342  0.9375E-07  0.2720E+00
      8.377  0.8973E-08  0.2720E+00
      8.411  0.6787E-09  0.2720E+00
      8.446  0.4055E-10  0.2720E+00
      8.481  0.1914E-11  0.2720E+00
      8.516  0.7128E-13  0.2720E+00
      8.550  0.2095E-14  0.2720E+00
      8.585  0.4900E-16  0.2720E+00
      8.620  0.0000E+00  0.2720E+00
      8.655  0.0000E+00  0.2720E+00
      8.689  0.0000E+00  0.2720E+00
      8.724  0.0000E+00  0.2720E+00
      8.759  0.0000E+00  0.2720E+00
      8.794  0.0000E+00  0.2720E+00
      8.828  0.0000E+00  0.2720E+00
      8.863  0.0000E+00  0.2720E+00
      8.898  0.0000E+00  0.2720E+00
      8.933  0.0000E+00  0.2720E+00
      8.967  0.0000E+00  0.2720E+00
      9.002  0.0000E+00  0.2720E+00
