   20   20  500    1
  0.1295360E+02  0.6393987E-09  0.9818587E-09  0.4199258E-09  0.5000000E-15
  1.000000000000000E-004
  CAR 
 unknown system                          
    109      8     68
 
  0.0000000E+00  0.0000000E+00  0.0000000E+00  0.8333333E-01
    1       -0.421223   1.000000
    2        1.251216   1.000000
    3        1.466809   1.000000
    4        2.901694   1.000000
    5        2.941805   1.000000
    6        3.113764   1.000000
    7        3.186159   1.000000
    8        3.247378   1.000000
    9        3.507961   1.000000
   10        3.550608   1.000000
   11        3.825047   1.000000
   12        3.837663   1.000000
   13        3.854063   1.000000
   14        3.940718   1.000000
   15        3.970637   1.000000
   16        4.081075   1.000000
   17        4.088693   1.000000
   18        4.139591   1.000000
   19        4.242945   1.000000
   20        4.251430   1.000000
   21        4.338191   1.000000
   22        4.406923   1.000000
   23        4.428013   1.000000
   24        4.587968   1.000000
   25        4.626418   1.000000
   26        4.654312   1.000000
   27        4.732063   1.000000
   28        4.747021   1.000000
   29        4.768480   1.000000
   30        4.828031   1.000000
   31        4.866815   1.000000
   32        4.936096   1.000000
   33        5.049252   1.000000
   34        5.055090   1.000000
   35        5.118804   1.000000
   36        5.202586   1.000000
   37        5.275392   1.000000
   38        5.429098   1.000000
   39        5.462347   1.000000
   40        5.512213   1.000000
   41        5.606997   1.000000
   42        5.688095   1.000000
   43        5.792395   1.000000
   44        5.838549   1.000000
   45        5.868922   1.000000
   46        5.909182   1.000000
   47        6.144544   1.000000
   48        6.238029   0.999993
   49        6.368503   0.993864
   50        6.403227   0.977949
   51        6.427921   0.951934
   52        6.464744   0.873511
   53        6.531533   0.578714
   54        6.543617   0.511057
   55        6.643522   0.083002
   56        6.666917   0.043079
   57        6.806437   0.000113
   58        6.874688   0.000002
   59        6.911803   0.000000
   60        7.110441   0.000000
   61        7.281892   0.000000
   62        7.285531   0.000000
   63        7.423625   0.000000
   64        7.494909   0.000000
   65        7.547514   0.000000
   66        7.658790   0.000000
   67        7.742087   0.000000
   68        7.897895   0.000000
 
  0.5000000E+00  0.1658227E-16  0.5082277E-20  0.8333333E-01
    1        0.480837   1.000000
    2        0.933487   1.000000
    3        1.645632   1.000000
    4        1.952223   1.000000
    5        2.644212   1.000000
    6        2.676084   1.000000
    7        2.976635   1.000000
    8        3.067354   1.000000
    9        3.096255   1.000000
   10        3.540368   1.000000
   11        3.747816   1.000000
   12        3.798779   1.000000
   13        3.893765   1.000000
   14        3.907079   1.000000
   15        4.036339   1.000000
   16        4.130504   1.000000
   17        4.133230   1.000000
   18        4.148534   1.000000
   19        4.212692   1.000000
   20        4.284294   1.000000
   21        4.370072   1.000000
   22        4.397573   1.000000
   23        4.427839   1.000000
   24        4.584335   1.000000
   25        4.597293   1.000000
   26        4.703900   1.000000
   27        4.948127   1.000000
   28        4.991040   1.000000
   29        5.007929   1.000000
   30        5.029711   1.000000
   31        5.058009   1.000000
   32        5.106970   1.000000
   33        5.176613   1.000000
   34        5.216974   1.000000
   35        5.328747   1.000000
   36        5.357152   1.000000
   37        5.534424   1.000000
   38        5.599478   1.000000
   39        5.611423   1.000000
   40        5.669357   1.000000
   41        5.682148   1.000000
   42        5.791503   1.000000
   43        5.804731   1.000000
   44        5.849041   1.000000
   45        5.852512   1.000000
   46        5.890980   1.000000
   47        5.908032   1.000000
   48        5.964461   1.000000
   49        5.967749   1.000000
   50        6.015023   1.000000
   51        6.128029   1.000000
   52        6.136161   1.000000
   53        6.243753   0.999990
   54        6.377485   0.991277
   55        6.397515   0.981866
   56        6.533925   0.565444
   57        6.849963   0.000008
   58        7.033162   0.000000
   59        7.087113   0.000000
   60        7.309734   0.000000
   61        7.358378   0.000000
   62        7.399147   0.000000
   63        7.497394   0.000000
   64        7.741469   0.000000
   65        7.845707   0.000000
   66        7.860269   0.000000
   67        7.985971   0.000000
   68        8.002002   0.000000
 
  0.0000000E+00  0.5000000E+00  0.2247464E-19  0.8333333E-01
    1       -0.023988   1.000000
    2        0.151921   1.000000
    3        2.633403   1.000000
    4        2.730159   1.000000
    5        2.958686   1.000000
    6        3.026042   1.000000
    7        3.290833   1.000000
    8        3.382814   1.000000
    9        3.588006   1.000000
   10        3.649569   1.000000
   11        3.686679   1.000000
   12        3.774382   1.000000
   13        3.815577   1.000000
   14        3.827251   1.000000
   15        3.975960   1.000000
   16        3.999400   1.000000
   17        4.009039   1.000000
   18        4.082061   1.000000
   19        4.102738   1.000000
   20        4.123422   1.000000
   21        4.364662   1.000000
   22        4.413581   1.000000
   23        4.535623   1.000000
   24        4.565211   1.000000
   25        4.588946   1.000000
   26        4.617215   1.000000
   27        4.662478   1.000000
   28        4.714883   1.000000
   29        4.829524   1.000000
   30        4.851759   1.000000
   31        4.903028   1.000000
   32        4.925907   1.000000
   33        5.039303   1.000000
   34        5.077422   1.000000
   35        5.260566   1.000000
   36        5.344437   1.000000
   37        5.449834   1.000000
   38        5.470349   1.000000
   39        5.478608   1.000000
   40        5.481324   1.000000
   41        5.523199   1.000000
   42        5.534266   1.000000
   43        5.656689   1.000000
   44        5.673264   1.000000
   45        5.726065   1.000000
   46        5.802147   1.000000
   47        6.131757   1.000000
   48        6.285830   0.999880
   49        6.363883   0.994908
   50        6.384012   0.988840
   51        6.504274   0.720424
   52        6.525424   0.612181
   53        6.582490   0.300825
   54        6.640157   0.090519
   55        6.745083   0.002390
   56        6.892858   0.000000
   57        6.907989   0.000000
   58        7.007393   0.000000
   59        7.081300   0.000000
   60        7.116885   0.000000
   61        7.172495   0.000000
   62        7.237147   0.000000
   63        7.319809   0.000000
   64        7.380967   0.000000
   65        7.487828   0.000000
   66        7.568059   0.000000
   67        7.688448   0.000000
   68        7.878233   0.000000
 
  0.5000000E+00  0.5000000E+00  0.3513802E-19  0.8333333E-01
    1        0.682895   1.000000
    2        0.892792   1.000000
    3        1.446902   1.000000
    4        1.490506   1.000000
    5        3.052694   1.000000
    6        3.160137   1.000000
    7        3.275863   1.000000
    8        3.276871   1.000000
    9        3.321480   1.000000
   10        3.342656   1.000000
   11        3.417421   1.000000
   12        3.429402   1.000000
   13        3.647625   1.000000
   14        3.742457   1.000000
   15        3.761067   1.000000
   16        3.786917   1.000000
   17        4.196053   1.000000
   18        4.214069   1.000000
   19        4.380366   1.000000
   20        4.414314   1.000000
   21        4.610153   1.000000
   22        4.612332   1.000000
   23        4.662193   1.000000
   24        4.703613   1.000000
   25        4.704894   1.000000
   26        4.790822   1.000000
   27        4.849185   1.000000
   28        4.872953   1.000000
   29        4.947830   1.000000
   30        4.992686   1.000000
   31        4.998690   1.000000
   32        5.176253   1.000000
   33        5.194942   1.000000
   34        5.293281   1.000000
   35        5.310934   1.000000
   36        5.358294   1.000000
   37        5.376181   1.000000
   38        5.429610   1.000000
   39        5.517381   1.000000
   40        5.519878   1.000000
   41        5.554737   1.000000
   42        5.601343   1.000000
   43        5.784619   1.000000
   44        5.787995   1.000000
   45        5.820960   1.000000
   46        5.863200   1.000000
   47        5.881117   1.000000
   48        5.972326   1.000000
   49        6.094735   1.000000
   50        6.119639   1.000000
   51        6.231986   0.999995
   52        6.278214   0.999922
   53        6.347774   0.997424
   54        6.419314   0.962920
   55        6.658217   0.055583
   56        6.800203   0.000159
   57        6.939592   0.000000
   58        7.080416   0.000000
   59        7.242983   0.000000
   60        7.256537   0.000000
   61        7.267470   0.000000
   62        7.338521   0.000000
   63        7.438652   0.000000
   64        7.470515   0.000000
   65        7.539056   0.000000
   66        7.615822   0.000000
   67        7.727612   0.000000
   68        7.909297   0.000000
 
  0.0000000E+00  0.0000000E+00  0.3333333E+00  0.1666667E+00
    1        0.655203   1.000000
    2        2.025747   1.000000
    3        2.257543   1.000000
    4        2.649986   1.000000
    5        3.102617   1.000000
    6        3.165451   1.000000
    7        3.405360   1.000000
    8        3.498604   1.000000
    9        3.585211   1.000000
   10        3.611757   1.000000
   11        3.654166   1.000000
   12        3.774919   1.000000
   13        3.782960   1.000000
   14        3.813720   1.000000
   15        3.902078   1.000000
   16        3.973221   1.000000
   17        4.004514   1.000000
   18        4.043471   1.000000
   19        4.055364   1.000000
   20        4.111324   1.000000
   21        4.177507   1.000000
   22        4.402660   1.000000
   23        4.623497   1.000000
   24        4.652423   1.000000
   25        4.722912   1.000000
   26        4.826333   1.000000
   27        4.844317   1.000000
   28        4.929260   1.000000
   29        5.010269   1.000000
   30        5.028255   1.000000
   31        5.067342   1.000000
   32        5.160596   1.000000
   33        5.214033   1.000000
   34        5.234668   1.000000
   35        5.301202   1.000000
   36        5.339310   1.000000
   37        5.373812   1.000000
   38        5.493749   1.000000
   39        5.540399   1.000000
   40        5.554967   1.000000
   41        5.685935   1.000000
   42        5.725653   1.000000
   43        5.762553   1.000000
   44        5.789253   1.000000
   45        5.819369   1.000000
   46        5.927091   1.000000
   47        5.983832   1.000000
   48        6.079575   1.000000
   49        6.144827   1.000000
   50        6.168866   1.000000
   51        6.191561   1.000000
   52        6.295839   0.999794
   53        6.400567   0.979855
   54        6.420942   0.961016
   55        6.611031   0.177312
   56        6.675780   0.032785
   57        6.890069   0.000001
   58        6.995728   0.000000
   59        7.225156   0.000000
   60        7.263152   0.000000
   61        7.292480   0.000000
   62        7.363296   0.000000
   63        7.460021   0.000000
   64        7.532188   0.000000
   65        7.597097   0.000000
   66        7.651235   0.000000
   67        7.760697   0.000000
   68        7.823299   0.000000
 
  0.5000000E+00  0.1658227E-16  0.3333333E+00  0.1666667E+00
    1        1.399945   1.000000
    2        1.884305   1.000000
    3        2.250292   1.000000
    4        2.566393   1.000000
    5        2.915820   1.000000
    6        2.972874   1.000000
    7        3.065814   1.000000
    8        3.166742   1.000000
    9        3.315704   1.000000
   10        3.522442   1.000000
   11        3.567076   1.000000
   12        3.616506   1.000000
   13        3.696570   1.000000
   14        3.706960   1.000000
   15        3.864419   1.000000
   16        3.894031   1.000000
   17        4.009090   1.000000
   18        4.038620   1.000000
   19        4.111426   1.000000
   20        4.326334   1.000000
   21        4.388685   1.000000
   22        4.608106   1.000000
   23        4.630719   1.000000
   24        4.680211   1.000000
   25        4.707345   1.000000
   26        4.838278   1.000000
   27        4.871941   1.000000
   28        4.933113   1.000000
   29        4.976866   1.000000
   30        5.108881   1.000000
   31        5.197362   1.000000
   32        5.262117   1.000000
   33        5.337164   1.000000
   34        5.359608   1.000000
   35        5.396491   1.000000
   36        5.429167   1.000000
   37        5.449773   1.000000
   38        5.492297   1.000000
   39        5.537710   1.000000
   40        5.669817   1.000000
   41        5.778768   1.000000
   42        5.812626   1.000000
   43        5.889730   1.000000
   44        6.007585   1.000000
   45        6.034413   1.000000
   46        6.086061   1.000000
   47        6.122926   1.000000
   48        6.147305   1.000000
   49        6.160538   1.000000
   50        6.186903   1.000000
   51        6.224931   0.999997
   52        6.258743   0.999975
   53        6.288236   0.999863
   54        6.304939   0.999667
   55        6.358191   0.995976
   56        6.453840   0.902745
   57        6.529523   0.589801
   58        6.986502   0.000000
   59        7.007571   0.000000
   60        7.165762   0.000000
   61        7.373634   0.000000
   62        7.407471   0.000000
   63        7.467361   0.000000
   64        7.501070   0.000000
   65        7.548722   0.000000
   66        7.628221   0.000000
   67        7.673232   0.000000
   68        7.784909   0.000000
 
  0.0000000E+00  0.5000000E+00  0.3333333E+00  0.1666667E+00
    1        0.992527   1.000000
    2        1.181556   1.000000
    3        2.856473   1.000000
    4        3.039205   1.000000
    5        3.136317   1.000000
    6        3.249191   1.000000
    7        3.251506   1.000000
    8        3.284280   1.000000
    9        3.453182   1.000000
   10        3.469688   1.000000
   11        3.499177   1.000000
   12        3.506418   1.000000
   13        3.740442   1.000000
   14        3.791598   1.000000
   15        3.900941   1.000000
   16        3.945172   1.000000
   17        4.059768   1.000000
   18        4.122595   1.000000
   19        4.161884   1.000000
   20        4.186436   1.000000
   21        4.225258   1.000000
   22        4.281712   1.000000
   23        4.635962   1.000000
   24        4.712032   1.000000
   25        4.789951   1.000000
   26        4.827342   1.000000
   27        4.835345   1.000000
   28        4.882217   1.000000
   29        4.938281   1.000000
   30        4.978621   1.000000
   31        5.015484   1.000000
   32        5.198036   1.000000
   33        5.237827   1.000000
   34        5.313939   1.000000
   35        5.419928   1.000000
   36        5.451715   1.000000
   37        5.564795   1.000000
   38        5.619003   1.000000
   39        5.643039   1.000000
   40        5.726703   1.000000
   41        5.776655   1.000000
   42        5.845867   1.000000
   43        5.879012   1.000000
   44        5.901255   1.000000
   45        5.967888   1.000000
   46        5.998371   1.000000
   47        6.018477   1.000000
   48        6.052065   1.000000
   49        6.081584   1.000000
   50        6.116255   1.000000
   51        6.144299   1.000000
   52        6.191882   1.000000
   53        6.247037   0.999988
   54        6.316055   0.999415
   55        6.518989   0.646543
   56        6.609768   0.181990
   57        6.643862   0.082271
   58        6.671668   0.037277
   59        7.030059   0.000000
   60        7.198716   0.000000
   61        7.300255   0.000000
   62        7.449947   0.000000
   63        7.488307   0.000000
   64        7.599791   0.000000
   65        7.719096   0.000000
   66        7.760004   0.000000
   67        7.766968   0.000000
   68        7.816327   0.000000
 
  0.5000000E+00  0.5000000E+00  0.3333333E+00  0.1666667E+00
    1        1.559243   1.000000
    2        1.800169   1.000000
    3        2.208993   1.000000
    4        2.260837   1.000000
    5        2.879042   1.000000
    6        2.983603   1.000000
    7        3.265869   1.000000
    8        3.420867   1.000000
    9        3.478346   1.000000
   10        3.564634   1.000000
   11        3.617567   1.000000
   12        3.634491   1.000000
   13        3.789080   1.000000
   14        3.811379   1.000000
   15        3.839185   1.000000
   16        3.870806   1.000000
   17        3.872223   1.000000
   18        3.939888   1.000000
   19        3.992615   1.000000
   20        4.039835   1.000000
   21        4.078326   1.000000
   22        4.117924   1.000000
   23        4.716177   1.000000
   24        4.762027   1.000000
   25        4.827219   1.000000
   26        4.929119   1.000000
   27        4.984856   1.000000
   28        5.048356   1.000000
   29        5.114882   1.000000
   30        5.150165   1.000000
   31        5.211022   1.000000
   32        5.289426   1.000000
   33        5.340543   1.000000
   34        5.395902   1.000000
   35        5.461313   1.000000
   36        5.484471   1.000000
   37        5.517220   1.000000
   38        5.562109   1.000000
   39        5.605421   1.000000
   40        5.630922   1.000000
   41        5.713899   1.000000
   42        5.837947   1.000000
   43        5.901203   1.000000
   44        5.933482   1.000000
   45        5.995937   1.000000
   46        6.048969   1.000000
   47        6.062467   1.000000
   48        6.127613   1.000000
   49        6.189329   1.000000
   50        6.235341   0.999994
   51        6.315185   0.999439
   52        6.379555   0.990560
   53        6.408648   0.973595
   54        6.490510   0.781938
   55        6.551964   0.464014
   56        6.658479   0.055169
   57        6.718501   0.007232
   58        6.740741   0.002890
   59        6.841667   0.000014
   60        6.986880   0.000000
   61        7.029499   0.000000
   62        7.095299   0.000000
   63        7.309371   0.000000
   64        7.447843   0.000000
   65        7.476227   0.000000
   66        7.522029   0.000000
   67        7.622488   0.000000
   68        7.675953   0.000000
