 vasp.5.4.4.18Apr17-6-g9f103f2a35 (build Jul 11 2019 11:52:51) complex          
  
 executed on             LinuxIFC date 2023.11.29  16:42:04
 running on    4 total cores
 distrk:  each k-point on    4 cores,    1 groups
 distr:  one band on NCORES_PER_BAND=   1 cores,    4 groups


--------------------------------------------------------------------------------------------------------


 INCAR:
 POTCAR:    PAW_PBE V 08Apr2002                   
 POTCAR:    PAW_PBE Fe 06Sep2000                  
 POTCAR:    PAW_PBE V 08Apr2002                   
   VRHFIN =V: p6 d4 s1                                                          
   LEXCH  = PE                                                                  
   EATOM  =   170.8679 eV,   12.5584 Ry                                         
                                                                                
   TITEL  = PAW_PBE V 08Apr2002                                                 
   LULTRA =        F    use ultrasoft PP ?                                      
   IUNSCR =        1    unscreen: 0-lin 1-nonlin 2-no                           
   RPACOR =    2.000    partial core radius                                     
   POMASS =   50.941; ZVAL   =    5.000    mass and valenz                      
   RCORE  =    2.700    outmost cutoff radius                                   
   RWIGS  =    2.500; RWIGS  =    1.323    wigner-seitz radius (au A)           
   ENMAX  =  192.543; ENMIN  =  144.408 eV                                      
   RCLOC  =    1.779    cutoff for local pot                                    
   LCOR   =        T    correct aug charges                                     
   LPAW   =        T    paw PP                                                  
   EAUG   =  358.662                                                            
   DEXC   =    0.000                                                            
   RMAX   =    2.768    core radius for proj-oper                               
   RAUG   =    1.300    factor for augmentation sphere                          
   RDEP   =    2.762    radius for radial grids                                 
   RDEPT  =    2.240    core radius for aug-charge                              
                                                                                
   Atomic configuration                                                         
    9 entries                                                                   
     n  l   j            E        occ.                                          
     1  0  0.50     -5360.7193   2.0000                                         
     2  0  0.50      -598.4546   2.0000                                         
     2  1  1.50      -499.0155   6.0000                                         
     3  0  0.50       -66.5711   2.0000                                         
     3  1  1.50       -40.5282   6.0000                                         
     3  2  2.50        -2.4291   4.0000                                         
     4  0  0.50        -3.8743   1.0000                                         
     4  1  0.50        -2.7212   0.0000                                         
     4  3  2.50        -1.3606   0.0000                                         
   Description                                                                  
     l       E           TYP  RCUT    TYP  RCUT                                 
     2     -2.4290901     23  2.700                                             
     2     -3.7896727     23  2.700                                             
     0     -3.8742752     23  2.700                                             
     0     27.2116520     23  2.700                                             
     1     -2.7211652     23  2.700                                             
     1     27.2116520     23  2.700                                             
  local pseudopotential read in
  partial core-charges read in
  partial kinetic energy density read in
  atomic valenz-charges read in
  non local Contribution for L=           2  read in
    real space projection operators read in
  non local Contribution for L=           2  read in
    real space projection operators read in
  non local Contribution for L=           0  read in
    real space projection operators read in
  non local Contribution for L=           0  read in
    real space projection operators read in
  non local Contribution for L=           1  read in
    real space projection operators read in
  non local Contribution for L=           1  read in
    real space projection operators read in
    PAW grid and wavefunctions read in
 
   number of l-projection  operators is LMAX  =           6
   number of lm-projection operators is LMMAX =          18
 
 POTCAR:    PAW_PBE Fe 06Sep2000                  
   VRHFIN =Fe:  d7 s1                                                           
   LEXCH  = PE                                                                  
   EATOM  =   594.3153 eV,   43.6809 Ry                                         
                                                                                
   TITEL  = PAW_PBE Fe 06Sep2000                                                
   LULTRA =        F    use ultrasoft PP ?                                      
   IUNSCR =        1    unscreen: 0-lin 1-nonlin 2-no                           
   RPACOR =    2.000    partial core radius                                     
   POMASS =   55.847; ZVAL   =    8.000    mass and valenz                      
   RCORE  =    2.300    outmost cutoff radius                                   
   RWIGS  =    2.460; RWIGS  =    1.302    wigner-seitz radius (au A)           
   ENMAX  =  267.882; ENMIN  =  200.911 eV                                      
   RCLOC  =    1.701    cutoff for local pot                                    
   LCOR   =        T    correct aug charges                                     
   LPAW   =        T    paw PP                                                  
   EAUG   =  511.368                                                            
   DEXC   =    0.000                                                            
   RMAX   =    2.356    core radius for proj-oper                               
   RAUG   =    1.300    factor for augmentation sphere                          
   RDEP   =    2.442    radius for radial grids                                 
   RDEPT  =    1.890    core radius for aug-charge                              
                                                                                
   Atomic configuration                                                         
    9 entries                                                                   
     n  l   j            E        occ.                                          
     1  0  0.50     -6993.8440   2.0000                                         
     2  0  0.50      -814.6047   2.0000                                         
     2  1  1.50      -693.3689   6.0000                                         
     3  0  0.50       -89.4732   2.0000                                         
     3  1  1.50       -55.6373   6.0000                                         
     3  2  2.50        -3.8151   7.0000                                         
     4  0  0.50        -4.2551   1.0000                                         
     4  1  1.50        -3.4015   0.0000                                         
     4  3  2.50        -1.3606   0.0000                                         
   Description                                                                  
     l       E           TYP  RCUT    TYP  RCUT                                 
     2     -3.8151135     23  2.300                                             
     2     -5.1756961     23  2.300                                             
     0     -4.2550963     23  2.300                                             
     0      7.2035603     23  2.300                                             
     1     -2.7211652     23  2.300                                             
     1     18.4316424     23  2.300                                             
  local pseudopotential read in
  partial core-charges read in
  partial kinetic energy density read in
  atomic valenz-charges read in
  non local Contribution for L=           2  read in
    real space projection operators read in
  non local Contribution for L=           2  read in
    real space projection operators read in
  non local Contribution for L=           0  read in
    real space projection operators read in
  non local Contribution for L=           0  read in
    real space projection operators read in
  non local Contribution for L=           1  read in
    real space projection operators read in
  non local Contribution for L=           1  read in
    real space projection operators read in
    PAW grid and wavefunctions read in
 
   number of l-projection  operators is LMAX  =           6
   number of lm-projection operators is LMMAX =          18
 

 ----------------------------------------------------------------------------- 
|                                                                             |
|  ADVICE TO THIS USER RUNNING 'VASP/VAMP'   (HEAR YOUR MASTER'S VOICE ...):  |
|                                                                             |
|      You have a (more or less) 'large supercell' and for larger cells       |
|      it might be more efficient to use real space projection opertators     |
|      So try LREAL= Auto  in the INCAR   file.                               |
|      Mind:          For very  accurate calculation you might also keep the  |
|      reciprocal projection scheme          (i.e. LREAL=.FALSE.)             |
|                                                                             |
 ----------------------------------------------------------------------------- 

  PAW_PBE V 08Apr2002                   :
 energy of atom  1       EATOM= -170.8679
 kinetic energy error for atom=    0.0066 (will be added to EATOM!!)
  PAW_PBE Fe 06Sep2000                  :
 energy of atom  2       EATOM= -594.3153
 kinetic energy error for atom=    0.0346 (will be added to EATOM!!)
 
 
 POSCAR: EA0     6.394  9.819  4.199 90.03 90.00 
  positions in direct lattice
  No initial velocities read in
 exchange correlation table for  LEXCH =        8
   RHO(1)=    0.500       N(1)  =     2000
   RHO(2)=  100.500       N(2)  =     4000
 


--------------------------------------------------------------------------------------------------------


 ion  position               nearest neighbor table
   1  0.739  0.236  0.840-   8 2.54   2 2.55   6 2.55  20 2.56  20 2.57   4 2.60  10 2.60  10 2.61
                            17 2.90  17 2.90  13 2.93  13 2.93   9 2.95   5 3.06
   2  0.136  0.336  0.841-   6 2.52   4 2.54   1 2.55   9 2.55  15 2.56  17 2.56  15 2.57  17 2.57
                            20 2.96  20 2.96  13 2.97  13 2.98   7 2.98   8 3.07
   3  0.120  0.830  0.841-   8 2.50  16 2.51  18 2.52  16 2.53   7 2.55  12 2.59  12 2.60   5 2.65
                            19 2.91  19 2.92   9 2.94  14 3.00  14 3.01   4 3.04
   4  0.334  0.134  0.839-   2 2.54   5 2.59  12 2.59  12 2.59  13 2.60   1 2.60  13 2.60   8 2.62
                            10 2.96  10 2.96  17 2.97  17 2.97   6 2.97   3 3.04
   5  0.535  0.929  0.840-  18 2.50   8 2.51  14 2.52  14 2.54  10 2.59   4 2.59  10 2.59   3 2.65
                            19 2.91  19 2.91   7 2.92  12 3.00  12 3.00   1 3.06
   6  0.530  0.433  0.842-   2 2.52   7 2.53  13 2.54   9 2.54   1 2.55  13 2.56  11 2.61  11 2.62
                            18 2.94  20 2.95  20 2.95  15 2.97  15 2.97   4 2.97
   7  0.336  0.636  0.843-  18 2.51   6 2.53   3 2.55  14 2.58  15 2.59  15 2.59  14 2.59   9 2.62
                             5 2.92  11 2.95  11 2.95   2 2.98  16 2.99  16 3.00
   8  0.927  0.029  0.839-   3 2.50   5 2.51  19 2.52  19 2.53   1 2.54   4 2.62  17 2.64  17 2.64
                            10 2.91  10 2.91  12 2.93  12 2.93  18 2.98   2 3.07
   9  0.927  0.533  0.843-  18 2.49   6 2.54   2 2.55  20 2.56  20 2.57  16 2.61  16 2.61   7 2.62
                            11 2.91  11 2.91  15 2.94  15 2.94   3 2.94   1 2.95
  10  0.635  0.081  0.339-  19 2.46  13 2.55  17 2.56   5 2.59   5 2.59   1 2.60   1 2.61  12 2.62
                             8 2.91   8 2.91  14 2.92   4 2.96   4 2.96  20 3.02
  11  0.638  0.589  0.343-  16 2.50  18 2.51  14 2.52  18 2.52  20 2.54   6 2.61   6 2.62  15 2.64
                             9 2.91   9 2.91   7 2.95   7 2.95  19 2.98  13 3.00
  12  0.226  0.982  0.339-  19 2.51  14 2.54  17 2.57   3 2.59   4 2.59   4 2.59   3 2.60  10 2.62
                            16 2.91   8 2.93   8 2.93   5 3.00   5 3.00  13 3.05
  13  0.443  0.287  0.340-  20 2.50   6 2.54  10 2.55   6 2.56  15 2.59   4 2.60   4 2.60  17 2.63
                             1 2.93   1 2.93   2 2.97   2 2.98  11 3.00  12 3.05
  14  0.438  0.788  0.342-  11 2.52   5 2.52   5 2.54  19 2.54  12 2.54   7 2.58   7 2.59  16 2.62
                            10 2.92  18 2.93  18 2.93   3 3.00   3 3.01  15 3.03
  15  0.226  0.485  0.343-  20 2.53   2 2.56   2 2.57  16 2.57   7 2.59   7 2.59  13 2.59  11 2.64
                             9 2.94   9 2.94  17 2.94   6 2.97   6 2.97  14 3.03
  16  0.027  0.690  0.343-  19 2.49  11 2.50   3 2.51   3 2.53  15 2.57   9 2.61   9 2.61  14 2.62
                            18 2.91  12 2.91  18 2.91   7 2.99   7 3.00  20 3.02
  17  0.031  0.189  0.339-  20 2.50  10 2.56   2 2.56   2 2.57  12 2.57  13 2.63   8 2.64   8 2.64
                             1 2.90   1 2.90  15 2.94   4 2.97   4 2.97  19 2.99
  18  0.729  0.729  0.842-   9 2.49   5 2.50   7 2.51  11 2.51   3 2.52  11 2.52  19 2.63  19 2.64
                            16 2.91  16 2.91  14 2.93  14 2.93   6 2.94   8 2.98
  19  0.834  0.889  0.340-  10 2.46  16 2.49  12 2.51   8 2.52   8 2.53  14 2.54  18 2.63  18 2.64
                             5 2.91   3 2.91   5 2.91   3 2.92  11 2.98  17 2.99
  20  0.832  0.385  0.341-  17 2.50  13 2.50  15 2.53  11 2.54   9 2.56   1 2.56   9 2.57   1 2.57
                             6 2.95   6 2.95   2 2.96   2 2.96  10 3.02  16 3.02
 
  LATTYP: Found a triclinic cell.
 ALAT       =    16.8497879513
 B/A-ratio  =     0.3794698793
 C/A-ratio  =     0.2492172340
 COS(alpha) =     0.0000776328
 COS(beta)  =     0.4981963228
 COS(gamma) =     0.6511021404
  
  Lattice vectors:
  
 A1 = ( -10.9709330000,  -9.6446330000,  -8.3985140000)
 A2 = (  -6.3939870000,   0.0000000000,   0.0000000000)
 A3 = (  -0.0003260000,   0.0021170000,  -4.1992570000)


Analysis of symmetry for initial positions (statically):
=====================================================================
 Subroutine PRICEL returns:
 Original cell was already a primitive cell.
 

 Routine SETGRP: Setting up the symmetry group for a 
 triclinic supercell.


 Subroutine GETGRP returns: Found  1 space group operations
 (whereof  1 operations were pure point group operations)
 out of a pool of  2 trial point group operations.


The static configuration has the point symmetry C_1 .


Analysis of symmetry for dynamics (positions and initial velocities):
=====================================================================
 Subroutine PRICEL returns:
 Original cell was already a primitive cell.
 

 Routine SETGRP: Setting up the symmetry group for a 
 triclinic supercell.


 Subroutine GETGRP returns: Found  1 space group operations
 (whereof  1 operations were pure point group operations)
 out of a pool of  2 trial point group operations.


The dynamic configuration has the point symmetry C_1 .


 Subroutine INISYM returns: Found  1 space group operations
 (whereof  1 operations are pure point group operations),
 and found     1 'primitive' translations

 
 
 KPOINTS: EA                                      

Automatic generation of k-mesh.
Space group operators:
 irot       det(A)        alpha          n_x          n_y          n_z        tau_x        tau_y        tau_z
    1     1.000000     0.000001     1.000000     0.000000     0.000000     0.000000     0.000000     0.000000
 
 Subroutine IBZKPT returns following result:
 ===========================================
 
 Found      8 irreducible k-points:
 
 Following reciprocal coordinates:
            Coordinates               Weight
  0.000000  0.000000  0.000000      1.000000
  0.500000  0.000000  0.000000      1.000000
  0.000000  0.500000  0.000000      1.000000
  0.500000  0.500000  0.000000      1.000000
  0.000000  0.000000  0.333333      2.000000
  0.500000  0.000000  0.333333      2.000000
  0.000000  0.500000  0.333333      2.000000
  0.500000  0.500000  0.333333      2.000000
 
 Following cartesian coordinates:
            Coordinates               Weight
  0.000000  0.000000  0.000000      1.000000
  0.078198  0.014731  0.000001      1.000000
  0.000000  0.051820  0.000026      1.000000
  0.078198  0.066551  0.000027      1.000000
  0.000000  0.000000  0.079379      2.000000
  0.078198  0.014731  0.079380      2.000000
  0.000000  0.051820  0.079405      2.000000
  0.078198  0.066551  0.079407      2.000000
 


--------------------------------------------------------------------------------------------------------




 Dimension of arrays:
   k-points           NKPTS =      8   k-points in BZ     NKDIM =      8   number of bands    NBANDS=     68
   number of dos      NEDOS =    301   number of ions     NIONS =     20
   non local maximal  LDIM  =      6   non local SUM 2l+1 LMDIM =     18
   total plane-waves  NPLWV =  20160
   max r-space proj   IRMAX =      1   max aug-charges    IRDMAX=   4918
   dimension x,y,z NGX =    28 NGY =   40 NGZ =   18
   dimension x,y,z NGXF=    56 NGYF=   80 NGZF=   36
   support grid    NGXF=    56 NGYF=   80 NGZF=   36
   ions per type =              17   3
   NGX,Y,Z   is equivalent  to a cutoff of   7.28,  6.77,  7.13 a.u.
   NGXF,Y,Z  is equivalent  to a cutoff of  14.56, 13.55, 14.25 a.u.

 SYSTEM =  unknown system                          
 POSCAR =  EA0     6.394  9.819  4.199 90.03 90.00 

 Startparameter for this run:
   NWRITE =      2    write-flag & timer
   PREC   = normal    normal or accurate (medium, high low for compatibility)
   ISTART =      0    job   : 0-new  1-cont  2-samecut
   ICHARG =      2    charge: 1-file 2-atom 10-const
   ISPIN  =      1    spin polarized calculation?
   LNONCOLLINEAR =      F non collinear calculations
   LSORBIT =      F    spin-orbit coupling
   INIWAV =      1    electr: 0-lowe 1-rand  2-diag
   LASPH  =      F    aspherical Exc in radial PAW
   METAGGA=      F    non-selfconsistent MetaGGA calc.

 Electronic Relaxation 1
   ENCUT  =  267.9 eV  19.69 Ry    4.44 a.u.   8.53 13.10  5.60*2*pi/ulx,y,z
   ENINI  =  267.9     initial cutoff
   ENAUG  =  511.4 eV  augmentation charge cutoff
   NELM   =     60;   NELMIN=  2; NELMDL= -5     # of ELM steps 
   EDIFF  = 0.1E-04   stopping-criterion for ELM
   LREAL  =      F    real-space projection
   NLSPLINE    = F    spline interpolate recip. space projectors
   LCOMPAT=      F    compatible to vasp.4.4
   GGA_COMPAT  = T    GGA compatible to vasp.4.4-vasp.4.6
   LMAXPAW     = -100 max onsite density
   LMAXMIX     =    2 max onsite mixed and CHGCAR
   VOSKOWN=      0    Vosko Wilk Nusair interpolation
   ROPT   =    0.00000   0.00000
 Ionic relaxation
   EDIFFG = -.1E-01   stopping-criterion for IOM
   NSW    =    500    number of steps for IOM
   NBLOCK =      1;   KBLOCK =    500    inner block; outer block 
   IBRION =      2    ionic relax: 0-MD 1-quasi-New 2-CG
   NFREE  =      1    steps in history (QN), initial steepest desc. (CG)
   ISIF   =      3    stress and relaxation
   IWAVPR =     11    prediction:  0-non 1-charg 2-wave 3-comb
   ISYM   =      2    0-nonsym 1-usesym 2-fastsym
   LCORR  =      T    Harris-Foulkes like correction to forces

   POTIM  = 0.5000    time-step for ionic-motion
   TEIN   =    0.0    initial temperature
   TEBEG  =    0.0;   TEEND  =   0.0 temperature during run
   SMASS  =  -3.00    Nose mass-parameter (am)
   estimated Nose-frequenzy (Omega)   =  0.10E-29 period in steps =****** mass=  -0.934E-27a.u.
   SCALEE = 1.0000    scale energy and forces
   NPACO  =    256;   APACO  = 16.0  distance and # of slots for P.C.
   PSTRESS=    0.0 pullay stress

  Mass of Ions in am
   POMASS =  50.94 55.85
  Ionic Valenz
   ZVAL   =   5.00  8.00
  Atomic Wigner-Seitz radii
   RWIGS  =  -1.00 -1.00
  virtual crystal weights 
   VCA    =   1.00  1.00
   NELECT =     109.0000    total number of electrons
   NUPDOWN=      -1.0000    fix difference up-down

 DOS related values:
   EMIN   =  10.00;   EMAX   =-10.00  energy-range for DOS
   EFERMI =   0.00
   ISMEAR =     0;   SIGMA  =   0.10  broadening in eV -4-tet -1-fermi 0-gaus

 Electronic relaxation 2 (details)
   IALGO  =     38    algorithm
   LDIAG  =      T    sub-space diagonalisation (order eigenvalues)
   LSUBROT=      F    optimize rotation matrix (better conditioning)
   TURBO    =      0    0=normal 1=particle mesh
   IRESTART =      0    0=no restart 2=restart with 2 vectors
   NREBOOT  =      0    no. of reboots
   NMIN     =      0    reboot dimension
   EREF     =   0.00    reference energy to select bands
   IMIX   =      4    mixing-type and parameters
     AMIX     =   0.40;   BMIX     =  1.00
     AMIX_MAG =   1.60;   BMIX_MAG =  1.00
     AMIN     =   0.10
     WC   =   100.;   INIMIX=   1;  MIXPRE=   1;  MAXMIX= -45

 Intra band minimization:
   WEIMIN = 0.0010     energy-eigenvalue tresh-hold
   EBREAK =  0.37E-07  absolut break condition
   DEPER  =   0.30     relativ break condition  

   TIME   =   0.40     timestep for ELM

  volume/ion in A,a.u.               =      12.95        87.42
  Fermi-wavevector in a.u.,A,eV,Ry     =   1.226714  2.318154 20.474433  1.504828
  Thomas-Fermi vector in A             =   2.361705
 
 Write flags
   LWAVE        =      F    write WAVECAR
   LDOWNSAMPLE  =      F    k-point downsampling of WAVECAR
   LCHARG       =      F    write CHGCAR
   LVTOT        =      F    write LOCPOT, total local potential
   LVHAR        =      F    write LOCPOT, Hartree potential only
   LELF         =      F    write electronic localiz. function (ELF)
   LORBIT       =      0    0 simple, 1 ext, 2 COOP (PROOUT), +10 PAW based schemes


 Dipole corrections
   LMONO  =      F    monopole corrections only (constant potential shift)
   LDIPOL =      F    correct potential (dipole corrections)
   IDIPOL =      0    1-x, 2-y, 3-z, 4-all directions 
   EPSILON=  1.0000000 bulk dielectric constant

 Exchange correlation treatment:
   GGA     =    --    GGA type
   LEXCH   =     8    internal setting for exchange type
   VOSKOWN=      0    Vosko Wilk Nusair interpolation
   LHFCALC =     F    Hartree Fock is set to
   LHFONE  =     F    Hartree Fock one center treatment
   AEXX    =    0.0000 exact exchange contribution

 Linear response parameters
   LEPSILON=     F    determine dielectric tensor
   LRPA    =     F    only Hartree local field effects (RPA)
   LNABLA  =     F    use nabla operator in PAW spheres
   LVEL    =     F    velocity operator in full k-point grid
   LINTERFAST=   F  fast interpolation
   KINTER  =     0    interpolate to denser k-point grid
   CSHIFT  =0.1000    complex shift for real part using Kramers Kronig
   OMEGAMAX=  -1.0    maximum frequency
   DEG_THRESHOLD= 0.2000000E-02 threshold for treating states as degnerate
   RTIME   =   -0.100 relaxation time in fs
  (WPLASMAI=    0.000 imaginary part of plasma frequency in eV, 0.658/RTIME)
   DFIELD  = 0.0000000 0.0000000 0.0000000 field for delta impulse in time
 
 Orbital magnetization related:
   ORBITALMAG=     F  switch on orbital magnetization
   LCHIMAG   =     F  perturbation theory with respect to B field
   DQ        =  0.001000  dq finite difference perturbation B field
   LLRAUG    =     F  two centre corrections for induced B field



--------------------------------------------------------------------------------------------------------


 conjugate gradient relaxation of ions
 charge density and potential will be updated during run
 non-spin polarized calculation
 Variant of blocked Davidson
 Davidson routine will perform the subspace rotation
 perform sub-space diagonalisation
    after iterative eigenvector-optimisation
 modified Broyden-mixing scheme, WC =      100.0
 initial mixing is a Kerker type mixing with AMIX =  0.4000 and BMIX =      1.0000
 Hartree-type preconditioning will be used
 using additional bands           13
 reciprocal scheme for non local part
 use partial core corrections
 calculate Harris-corrections to forces 
   (improved forces if not selfconsistent)
 use gradient corrections 
 use of overlap-Matrix (Vanderbilt PP)
 Gauss-broadening in eV      SIGMA  =   0.10


--------------------------------------------------------------------------------------------------------


  energy-cutoff  :      267.88
  volume of cell :      259.07
      direct lattice vectors                 reciprocal lattice vectors
     6.393987000  0.000000000  0.000000000     0.156396940  0.029462695  0.000002712
    -1.817693000  9.648867000  0.000000000     0.000000000  0.103639111  0.000052248
     0.000326000 -0.002117000  4.199257000     0.000000000  0.000000000  0.238137366

  length of vectors
     6.393987000  9.818586570  4.199257546     0.159147897  0.103639124  0.238137366


 
 k-points in units of 2pi/SCALE and weight: EA                                      
   0.00000000  0.00000000  0.00000000       0.083
   0.07819847  0.01473135  0.00000136       0.083
   0.00000000  0.05181956  0.00002612       0.083
   0.07819847  0.06655090  0.00002748       0.083
   0.00000000  0.00000000  0.07937912       0.167
   0.07819847  0.01473135  0.07938048       0.167
   0.00000000  0.05181956  0.07940525       0.167
   0.07819847  0.06655090  0.07940660       0.167
 
 k-points in reciprocal lattice and weights: EA                                      
   0.00000000  0.00000000  0.00000000       0.083
   0.50000000  0.00000000  0.00000000       0.083
   0.00000000  0.50000000  0.00000000       0.083
   0.50000000  0.50000000  0.00000000       0.083
   0.00000000  0.00000000  0.33333333       0.167
   0.50000000  0.00000000  0.33333333       0.167
   0.00000000  0.50000000  0.33333333       0.167
   0.50000000  0.50000000  0.33333333       0.167
 
 position of ions in fractional coordinates (direct lattice) 
   0.73898000  0.23585000  0.83953700
   0.13615100  0.33631700  0.84080100
   0.12042600  0.82991800  0.84080200
   0.33381200  0.13405700  0.83875800
   0.53543400  0.92871900  0.83955800
   0.53020900  0.43342000  0.84220800
   0.33581100  0.63615300  0.84317100
   0.92652300  0.02897600  0.83895500
   0.92658100  0.53347000  0.84284200
   0.63519800  0.08104600  0.33891000
   0.63787500  0.58922100  0.34305400
   0.22608700  0.98231400  0.33897200
   0.44303500  0.28676200  0.34008900
   0.43831500  0.78767900  0.34152900
   0.22605700  0.48527300  0.34279000
   0.02731100  0.69026300  0.34263700
   0.03142600  0.18936700  0.33906400
   0.72857500  0.72906900  0.84168700
   0.83383500  0.88878800  0.34018900
   0.83237900  0.38534700  0.34138600
 
 position of ions in cartesian coordinates  (Angst):
   4.29659931  2.27390798  3.52543162
   0.25950077  3.24329803  3.53073948
  -0.73825976  8.00598843  3.53074368
   1.89098855  1.29172251  3.52216040
   1.73570571  8.95930877  3.52551981
   2.60259951  4.18022898  3.53664784
   0.99111519  6.13637070  3.54069172
   5.87178004  0.27780950  3.52298766
   4.95513695  5.14559678  3.53931017
   3.91424149  0.78128460  1.42317019
   3.00765341  5.68458882  1.44057191
  -0.33983744  9.47749953  1.42343054
   2.31162562  2.76620843  1.42812111
   1.37093315  7.59948689  1.43416804
   0.56343993  4.68160895  1.43946331
  -1.07994834  6.65953052  1.43882082
  -0.14316310  1.82645920  1.42381688
   3.33354985  7.03290796  3.53446003
   3.71609733  8.57507702  1.42854104
   4.62188925  3.71743924  1.43356755
 


--------------------------------------------------------------------------------------------------------


 k-point  1 :   0.0000 0.0000 0.0000  plane waves:    2573
 k-point  2 :   0.5000 0.0000 0.0000  plane waves:    2586
 k-point  3 :   0.0000 0.5000 0.0000  plane waves:    2592
 k-point  4 :   0.5000 0.5000 0.0000  plane waves:    2590
 k-point  5 :   0.0000 0.0000 0.3333  plane waves:    2575
 k-point  6 :   0.5000 0.0000 0.3333  plane waves:    2560
 k-point  7 :   0.0000 0.5000 0.3333  plane waves:    2586
 k-point  8 :   0.5000 0.5000 0.3333  plane waves:    2568

 maximum and minimum number of plane-waves per node :      2592     2560

 maximum number of plane-waves:      2592
 maximum index in each direction: 
   IXMAX=    8   IYMAX=   13   IZMAX=    5
   IXMIN=   -9   IYMIN=  -13   IZMIN=   -5


 serial   3D FFT for wavefunctions
 parallel 3D FFT for charge:
    minimum data exchange during FFTs selected (reduces bandwidth)


 total amount of memory used by VASP MPI-rank0    48221. kBytes
=======================================================================

   base      :      30000. kBytes
   nonl-proj :       6801. kBytes
   fftplans  :       1515. kBytes
   grid      :       3171. kBytes
   one-center:        311. kBytes
   wavefun   :       6423. kBytes
 
     INWAV:  cpu time    0.0001: real time    0.0000
 Broyden mixing: mesh for mixing (old mesh)
   NGX = 17   NGY = 27   NGZ = 11
  (NGX  = 56   NGY  = 80   NGZ  = 36)
  gives a total of   5049 points

 initial charge density was supplied:
 charge density of overlapping atoms calculated
 number of electron     109.0000000 magnetization 
 keeping initial charge density in first step


--------------------------------------------------------------------------------------------------------


 Maximum index for augmentation-charges         1159 (set IRDMAX)


--------------------------------------------------------------------------------------------------------


 First call to EWALD:  gamma=   0.278
 Maximum number of real-space cells 3x 2x 4
 Maximum number of reciprocal cells 3x 4x 2

    FEWALD:  cpu time    0.0029: real time    0.0029


--------------------------------------- Iteration      1(   1)  ---------------------------------------


    POTLOK:  cpu time    0.0401: real time    0.0779
    SETDIJ:  cpu time    0.0171: real time    0.0412
     EDDAV:  cpu time    1.3885: real time    1.8223
       DOS:  cpu time    0.0012: real time    0.0011
    --------------------------------------------
      LOOP:  cpu time    1.4469: real time    1.9426

 eigenvalue-minimisations  :  1088
 total energy-change (2. order) : 0.6193977E+03  (-0.2243759E+04)
 number of electron     109.0000000 magnetization 
 augmentation part      109.0000000 magnetization 

 Free energy of the ion-electron system (eV)
  ---------------------------------------------------
  alpha Z        PSCENC =       552.45268762
  Ewald energy   TEWEN  =     -5294.62434380
  -Hartree energ DENC   =      -816.24333279
  -exchange      EXHF   =         0.00000000
  -V(xc)+E(xc)   XCENC  =      -770.81548909
  PAW double counting   =      5171.05454107    -4356.08836938
  entropy T*S    EENTRO =        -0.06804798
  eigenvalues    EBANDS =      1446.24578914
  atomic energy  EATOM  =      4687.48422623
  Solvation  Ediel_sol  =         0.00000000
  ---------------------------------------------------
  free energy    TOTEN  =       619.39766102 eV

  energy without entropy =      619.46570900  energy(sigma->0) =      619.43168501


--------------------------------------------------------------------------------------------------------




--------------------------------------- Iteration      1(   2)  ---------------------------------------


     EDDAV:  cpu time    1.5077: real time    1.5899
       DOS:  cpu time    0.0013: real time    0.0013
    --------------------------------------------
      LOOP:  cpu time    1.5089: real time    1.5912

 eigenvalue-minimisations  :  1088
 total energy-change (2. order) :-0.7006676E+03  (-0.6768277E+03)
 number of electron     109.0000000 magnetization 
 augmentation part      109.0000000 magnetization 

 Free energy of the ion-electron system (eV)
  ---------------------------------------------------
  alpha Z        PSCENC =       552.45268762
  Ewald energy   TEWEN  =     -5294.62434380
  -Hartree energ DENC   =      -816.24333279
  -exchange      EXHF   =         0.00000000
  -V(xc)+E(xc)   XCENC  =      -770.81548909
  PAW double counting   =      5171.05454107    -4356.08836938
  entropy T*S    EENTRO =        -0.05671394
  eigenvalues    EBANDS =       745.56683120
  atomic energy  EATOM  =      4687.48422623
  Solvation  Ediel_sol  =         0.00000000
  ---------------------------------------------------
  free energy    TOTEN  =       -81.26996288 eV

  energy without entropy =      -81.21324894  energy(sigma->0) =      -81.24160591


--------------------------------------------------------------------------------------------------------




--------------------------------------- Iteration      1(   3)  ---------------------------------------


     EDDAV:  cpu time    2.3647: real time    2.4063
       DOS:  cpu time    0.0013: real time    0.0013
    --------------------------------------------
      LOOP:  cpu time    2.3659: real time    2.4075

 eigenvalue-minimisations  :  1816
 total energy-change (2. order) :-0.1157773E+03  (-0.1094500E+03)
 number of electron     109.0000000 magnetization 
 augmentation part      109.0000000 magnetization 

 Free energy of the ion-electron system (eV)
  ---------------------------------------------------
  alpha Z        PSCENC =       552.45268762
  Ewald energy   TEWEN  =     -5294.62434380
  -Hartree energ DENC   =      -816.24333279
  -exchange      EXHF   =         0.00000000
  -V(xc)+E(xc)   XCENC  =      -770.81548909
  PAW double counting   =      5171.05454107    -4356.08836938
  entropy T*S    EENTRO =        -0.06998448
  eigenvalues    EBANDS =       629.80281793
  atomic energy  EATOM  =      4687.48422623
  Solvation  Ediel_sol  =         0.00000000
  ---------------------------------------------------
  free energy    TOTEN  =      -197.04724669 eV

  energy without entropy =     -196.97726221  energy(sigma->0) =     -197.01225445


--------------------------------------------------------------------------------------------------------




--------------------------------------- Iteration      1(   4)  ---------------------------------------


     EDDAV:  cpu time    1.9704: real time    1.9727
       DOS:  cpu time    0.0013: real time    0.0013
    --------------------------------------------
      LOOP:  cpu time    1.9717: real time    1.9739

 eigenvalue-minimisations  :  1744
 total energy-change (2. order) :-0.1118965E+02  (-0.1056989E+02)
 number of electron     109.0000000 magnetization 
 augmentation part      109.0000000 magnetization 

 Free energy of the ion-electron system (eV)
  ---------------------------------------------------
  alpha Z        PSCENC =       552.45268762
  Ewald energy   TEWEN  =     -5294.62434380
  -Hartree energ DENC   =      -816.24333279
  -exchange      EXHF   =         0.00000000
  -V(xc)+E(xc)   XCENC  =      -770.81548909
  PAW double counting   =      5171.05454107    -4356.08836938
  entropy T*S    EENTRO =        -0.08714379
  eigenvalues    EBANDS =       618.63032939
  atomic energy  EATOM  =      4687.48422623
  Solvation  Ediel_sol  =         0.00000000
  ---------------------------------------------------
  free energy    TOTEN  =      -208.23689454 eV

  energy without entropy =     -208.14975075  energy(sigma->0) =     -208.19332265


--------------------------------------------------------------------------------------------------------




--------------------------------------- Iteration      1(   5)  ---------------------------------------


     EDDAV:  cpu time    2.2207: real time    3.0891
       DOS:  cpu time    0.0013: real time    0.0013
    CHARGE:  cpu time    0.0824: real time    0.0825
    MIXING:  cpu time    0.0014: real time    0.0014
    --------------------------------------------
      LOOP:  cpu time    2.3059: real time    3.1744

 eigenvalue-minimisations  :  1736
 total energy-change (2. order) :-0.5701241E+00  (-0.5594992E+00)
 number of electron     109.0000037 magnetization 
 augmentation part       33.0744239 magnetization 

 Broyden mixing:
  rms(total) = 0.57343E+01    rms(broyden)= 0.57330E+01
  rms(prec ) = 0.67991E+01
  weight for this iteration     100.00

 Free energy of the ion-electron system (eV)
  ---------------------------------------------------
  alpha Z        PSCENC =       552.45268762
  Ewald energy   TEWEN  =     -5294.62434380
  -Hartree energ DENC   =      -816.24333279
  -exchange      EXHF   =         0.00000000
  -V(xc)+E(xc)   XCENC  =      -770.81548909
  PAW double counting   =      5171.05454107    -4356.08836938
  entropy T*S    EENTRO =        -0.08918202
  eigenvalues    EBANDS =       618.06224350
  atomic energy  EATOM  =      4687.48422623
  Solvation  Ediel_sol  =         0.00000000
  ---------------------------------------------------
  free energy    TOTEN  =      -208.80701865 eV

  energy without entropy =     -208.71783664  energy(sigma->0) =     -208.76242765


--------------------------------------------------------------------------------------------------------




--------------------------------------- Iteration      1(   6)  ---------------------------------------


    POTLOK:  cpu time    0.0413: real time    0.0414
    SETDIJ:  cpu time    0.0171: real time    0.0274
     EDDAV:  cpu time    2.4697: real time    3.6998
       DOS:  cpu time    0.0014: real time    0.0014
    CHARGE:  cpu time    0.0503: real time    0.0504
    MIXING:  cpu time    0.0015: real time    0.0015
    --------------------------------------------
      LOOP:  cpu time    2.5814: real time    3.8219

 eigenvalue-minimisations  :  1984
 total energy-change (2. order) :-0.2646136E+02  (-0.5097653E+02)
 number of electron     109.0000072 magnetization 
 augmentation part       45.7495573 magnetization 

 Broyden mixing:
  rms(total) = 0.88447E+01    rms(broyden)= 0.88439E+01
  rms(prec ) = 0.11932E+02
  weight for this iteration     100.00

 eigenvalues of (default mixing * dielectric matrix)
  average eigenvalue GAMMA=   0.3182
  0.3182

 Free energy of the ion-electron system (eV)
  ---------------------------------------------------
  alpha Z        PSCENC =       552.45268762
  Ewald energy   TEWEN  =     -5294.62434380
  -Hartree energ DENC   =      -605.10849030
  -exchange      EXHF   =         0.00000000
  -V(xc)+E(xc)   XCENC  =      -773.70311241
  PAW double counting   =      6253.43026226    -5419.18919742
  entropy T*S    EENTRO =        -0.13715985
  eigenvalues    EBANDS =       364.12675148
  atomic energy  EATOM  =      4687.48422623
  Solvation  Ediel_sol  =         0.00000000
  ---------------------------------------------------
  free energy    TOTEN  =      -235.26837619 eV

  energy without entropy =     -235.13121634  energy(sigma->0) =     -235.19979627


--------------------------------------------------------------------------------------------------------




--------------------------------------- Iteration      1(   7)  ---------------------------------------


    POTLOK:  cpu time    0.0272: real time    0.0273
    SETDIJ:  cpu time    0.0135: real time    0.0255
     EDDAV:  cpu time    2.2430: real time    3.1335
       DOS:  cpu time    0.0015: real time    0.0015
    CHARGE:  cpu time    0.0489: real time    0.0490
    MIXING:  cpu time    0.0017: real time    0.0017
    --------------------------------------------
      LOOP:  cpu time    2.3358: real time    3.2386

 eigenvalue-minimisations  :  2036
 total energy-change (2. order) : 0.5306371E+02  (-0.4110102E+02)
 number of electron     109.0000059 magnetization 
 augmentation part       41.8515037 magnetization 

 Broyden mixing:
  rms(total) = 0.24004E+01    rms(broyden)= 0.23974E+01
  rms(prec ) = 0.41929E+01
  weight for this iteration     100.00

 eigenvalues of (default mixing * dielectric matrix)
  average eigenvalue GAMMA=   0.5864
  0.9245  0.2483

 Free energy of the ion-electron system (eV)
  ---------------------------------------------------
  alpha Z        PSCENC =       552.45268762
  Ewald energy   TEWEN  =     -5294.62434380
  -Hartree energ DENC   =      -677.88169838
  -exchange      EXHF   =         0.00000000
  -V(xc)+E(xc)   XCENC  =      -770.01841389
  PAW double counting   =      6647.41283293    -5829.36484423
  entropy T*S    EENTRO =        -0.10182721
  eigenvalues    EBANDS =       502.43671693
  atomic energy  EATOM  =      4687.48422623
  Solvation  Ediel_sol  =         0.00000000
  ---------------------------------------------------
  free energy    TOTEN  =      -182.20466381 eV

  energy without entropy =     -182.10283660  energy(sigma->0) =     -182.15375021


--------------------------------------------------------------------------------------------------------




--------------------------------------- Iteration      1(   8)  ---------------------------------------


    POTLOK:  cpu time    0.0294: real time    0.0296
    SETDIJ:  cpu time    0.0157: real time    0.0187
     EDDAV:  cpu time    2.4185: real time    2.7145
       DOS:  cpu time    0.0015: real time    0.0015
    CHARGE:  cpu time    0.0526: real time    0.0527
    MIXING:  cpu time    0.0021: real time    0.0021
    --------------------------------------------
      LOOP:  cpu time    2.5197: real time    2.8190

 eigenvalue-minimisations  :  2152
 total energy-change (2. order) :-0.1687174E+02  (-0.2117459E+02)
 number of electron     109.0000028 magnetization 
 augmentation part       43.9764338 magnetization 

 Broyden mixing:
  rms(total) = 0.48525E+01    rms(broyden)= 0.48517E+01
  rms(prec ) = 0.85722E+01
  weight for this iteration     100.00

 eigenvalues of (default mixing * dielectric matrix)
  average eigenvalue GAMMA=   0.4665
  0.9812  0.2588  0.1597

 Free energy of the ion-electron system (eV)
  ---------------------------------------------------
  alpha Z        PSCENC =       552.45268762
  Ewald energy   TEWEN  =     -5294.62434380
  -Hartree energ DENC   =      -661.98065086
  -exchange      EXHF   =         0.00000000
  -V(xc)+E(xc)   XCENC  =      -769.65777896
  PAW double counting   =      7005.31389543    -6194.37586800
  entropy T*S    EENTRO =        -0.10246699
  eigenvalues    EBANDS =       476.41389299
  atomic energy  EATOM  =      4687.48422623
  Solvation  Ediel_sol  =         0.00000000
  ---------------------------------------------------
  free energy    TOTEN  =      -199.07640635 eV

  energy without entropy =     -198.97393936  energy(sigma->0) =     -199.02517285


--------------------------------------------------------------------------------------------------------




--------------------------------------- Iteration      1(   9)  ---------------------------------------


    POTLOK:  cpu time    0.0312: real time    0.0314
    SETDIJ:  cpu time    0.0203: real time    0.0207
     EDDAV:  cpu time    2.4591: real time    2.4659
       DOS:  cpu time    0.0015: real time    0.0015
    CHARGE:  cpu time    0.0515: real time    0.0516
    MIXING:  cpu time    0.0018: real time    0.0018
    --------------------------------------------
      LOOP:  cpu time    2.5654: real time    2.5730

 eigenvalue-minimisations  :  2176
 total energy-change (2. order) : 0.1878230E+02  (-0.1479876E+02)
 number of electron     109.0000066 magnetization 
 augmentation part       43.3474933 magnetization 

 Broyden mixing:
  rms(total) = 0.18949E+01    rms(broyden)= 0.18932E+01
  rms(prec ) = 0.31038E+01
  weight for this iteration     100.00

 eigenvalues of (default mixing * dielectric matrix)
  average eigenvalue GAMMA=   0.4031
  0.9330  0.3425  0.1956  0.1415

 Free energy of the ion-electron system (eV)
  ---------------------------------------------------
  alpha Z        PSCENC =       552.45268762
  Ewald energy   TEWEN  =     -5294.62434380
  -Hartree energ DENC   =      -648.77776712
  -exchange      EXHF   =         0.00000000
  -V(xc)+E(xc)   XCENC  =      -770.19068999
  PAW double counting   =      7108.45633212    -6298.81320831
  entropy T*S    EENTRO =        -0.11349173
  eigenvalues    EBANDS =       483.83215292
  atomic energy  EATOM  =      4687.48422623
  Solvation  Ediel_sol  =         0.00000000
  ---------------------------------------------------
  free energy    TOTEN  =      -180.29410206 eV

  energy without entropy =     -180.18061033  energy(sigma->0) =     -180.23735620


--------------------------------------------------------------------------------------------------------




--------------------------------------- Iteration      1(  10)  ---------------------------------------


    POTLOK:  cpu time    0.0422: real time    0.0423
    SETDIJ:  cpu time    0.0262: real time    0.0263
     EDDAV:  cpu time    2.7194: real time    2.7702
       DOS:  cpu time    0.0024: real time    0.0024
    CHARGE:  cpu time    0.0521: real time    0.0521
    MIXING:  cpu time    0.0022: real time    0.0022
    --------------------------------------------
      LOOP:  cpu time    2.8443: real time    2.8954

 eigenvalue-minimisations  :  2120
 total energy-change (2. order) : 0.1110975E+01  (-0.1510100E+01)
 number of electron     109.0000065 magnetization 
 augmentation part       42.7549647 magnetization 

 Broyden mixing:
  rms(total) = 0.11434E+01    rms(broyden)= 0.11430E+01
  rms(prec ) = 0.15132E+01
  weight for this iteration     100.00

 eigenvalues of (default mixing * dielectric matrix)
  average eigenvalue GAMMA=   0.3740
  0.9224  0.2999  0.2999  0.1738  0.1738

 Free energy of the ion-electron system (eV)
  ---------------------------------------------------
  alpha Z        PSCENC =       552.45268762
  Ewald energy   TEWEN  =     -5294.62434380
  -Hartree energ DENC   =      -652.31924659
  -exchange      EXHF   =         0.00000000
  -V(xc)+E(xc)   XCENC  =      -769.97018866
  PAW double counting   =      7132.50840584    -6323.58315682
  entropy T*S    EENTRO =        -0.11950715
  eigenvalues    EBANDS =       488.98799609
  atomic energy  EATOM  =      4687.48422623
  Solvation  Ediel_sol  =         0.00000000
  ---------------------------------------------------
  free energy    TOTEN  =      -179.18312725 eV

  energy without entropy =     -179.06362009  energy(sigma->0) =     -179.12337367


--------------------------------------------------------------------------------------------------------




--------------------------------------- Iteration      1(  11)  ---------------------------------------


    POTLOK:  cpu time    0.0357: real time    0.0358
    SETDIJ:  cpu time    0.0274: real time    0.0275
     EDDAV:  cpu time    2.2282: real time    3.0188
       DOS:  cpu time    0.0016: real time    0.0016
    CHARGE:  cpu time    0.0471: real time    0.0831
    MIXING:  cpu time    0.0019: real time    0.0019
    --------------------------------------------
      LOOP:  cpu time    2.3419: real time    3.1688

 eigenvalue-minimisations  :  1928
 total energy-change (2. order) : 0.1105093E+00  (-0.1524592E+00)
 number of electron     109.0000059 magnetization 
 augmentation part       42.5666823 magnetization 

 Broyden mixing:
  rms(total) = 0.10201E+01    rms(broyden)= 0.10200E+01
  rms(prec ) = 0.13427E+01
  weight for this iteration     100.00

 eigenvalues of (default mixing * dielectric matrix)
  average eigenvalue GAMMA=   0.4922
  1.0783  0.6724  0.6724  0.1853  0.1853  0.1598

 Free energy of the ion-electron system (eV)
  ---------------------------------------------------
  alpha Z        PSCENC =       552.45268762
  Ewald energy   TEWEN  =     -5294.62434380
  -Hartree energ DENC   =      -653.21235955
  -exchange      EXHF   =         0.00000000
  -V(xc)+E(xc)   XCENC  =      -769.83436409
  PAW double counting   =      7161.67059226    -6353.22394798
  entropy T*S    EENTRO =        -0.12219390
  eigenvalues    EBANDS =       490.33708530
  atomic energy  EATOM  =      4687.48422623
  Solvation  Ediel_sol  =         0.00000000
  ---------------------------------------------------
  free energy    TOTEN  =      -179.07261791 eV

  energy without entropy =     -178.95042401  energy(sigma->0) =     -179.01152096


--------------------------------------------------------------------------------------------------------




--------------------------------------- Iteration      1(  12)  ---------------------------------------


    POTLOK:  cpu time    0.0295: real time    0.0297
    SETDIJ:  cpu time    0.0178: real time    0.0178
     EDDAV:  cpu time    3.0291: real time    3.5234
       DOS:  cpu time    0.0014: real time    0.0014
    CHARGE:  cpu time    0.0510: real time    0.0511
    MIXING:  cpu time    0.0019: real time    0.0019
    --------------------------------------------
      LOOP:  cpu time    3.1307: real time    3.6254

 eigenvalue-minimisations  :  2056
 total energy-change (2. order) :-0.2248140E+00  (-0.3156834E+00)
 number of electron     109.0000068 magnetization 
 augmentation part       43.2072452 magnetization 

 Broyden mixing:
  rms(total) = 0.11054E+01    rms(broyden)= 0.11053E+01
  rms(prec ) = 0.16017E+01
  weight for this iteration     100.00

 eigenvalues of (default mixing * dielectric matrix)
  average eigenvalue GAMMA=   0.5501
  1.4270  0.8283  0.8283  0.2752  0.1685  0.1685  0.1547

 Free energy of the ion-electron system (eV)
  ---------------------------------------------------
  alpha Z        PSCENC =       552.45268762
  Ewald energy   TEWEN  =     -5294.62434380
  -Hartree energ DENC   =      -643.48901978
  -exchange      EXHF   =         0.00000000
  -V(xc)+E(xc)   XCENC  =      -769.77749617
  PAW double counting   =      7310.79237924    -6502.94166575
  entropy T*S    EENTRO =        -0.11667053
  eigenvalues    EBANDS =       480.92247102
  atomic energy  EATOM  =      4687.48422623
  Solvation  Ediel_sol  =         0.00000000
  ---------------------------------------------------
  free energy    TOTEN  =      -179.29743193 eV

  energy without entropy =     -179.18076140  energy(sigma->0) =     -179.23909666


--------------------------------------------------------------------------------------------------------




--------------------------------------- Iteration      1(  13)  ---------------------------------------


    POTLOK:  cpu time    0.0283: real time    0.0284
    SETDIJ:  cpu time    0.0169: real time    0.0169
     EDDAV:  cpu time    1.9376: real time    1.9424
       DOS:  cpu time    0.0014: real time    0.0014
    CHARGE:  cpu time    0.0503: real time    0.0503
    MIXING:  cpu time    0.0022: real time    0.0022
    --------------------------------------------
      LOOP:  cpu time    2.0366: real time    2.0416

 eigenvalue-minimisations  :  1712
 total energy-change (2. order) : 0.2899630E+00  (-0.5436290E+00)
 number of electron     109.0000062 magnetization 
 augmentation part       43.6785641 magnetization 

 Broyden mixing:
  rms(total) = 0.93104E+00    rms(broyden)= 0.93095E+00
  rms(prec ) = 0.13941E+01
  weight for this iteration     100.00

 eigenvalues of (default mixing * dielectric matrix)
  average eigenvalue GAMMA=   0.6475
  1.6155  1.6155  0.8107  0.4428  0.1982  0.1746  0.1746  0.1485

 Free energy of the ion-electron system (eV)
  ---------------------------------------------------
  alpha Z        PSCENC =       552.45268762
  Ewald energy   TEWEN  =     -5294.62434380
  -Hartree energ DENC   =      -637.65869716
  -exchange      EXHF   =         0.00000000
  -V(xc)+E(xc)   XCENC  =      -769.54541402
  PAW double counting   =      7461.67428305    -6654.81942838
  entropy T*S    EENTRO =        -0.12492340
  eigenvalues    EBANDS =       476.15414091
  atomic energy  EATOM  =      4687.48422623
  Solvation  Ediel_sol  =         0.00000000
  ---------------------------------------------------
  free energy    TOTEN  =      -179.00746895 eV

  energy without entropy =     -178.88254555  energy(sigma->0) =     -178.94500725


--------------------------------------------------------------------------------------------------------




--------------------------------------- Iteration      1(  14)  ---------------------------------------


    POTLOK:  cpu time    0.0279: real time    0.0281
    SETDIJ:  cpu time    0.0165: real time    0.0166
     EDDAV:  cpu time    2.3009: real time    2.3050
       DOS:  cpu time    0.0015: real time    0.0015
    CHARGE:  cpu time    0.0531: real time    0.0532
    MIXING:  cpu time    0.0022: real time    0.0022
    --------------------------------------------
      LOOP:  cpu time    2.4021: real time    2.4066

 eigenvalue-minimisations  :  2160
 total energy-change (2. order) : 0.2784833E+00  (-0.1290448E+00)
 number of electron     109.0000058 magnetization 
 augmentation part       43.5186739 magnetization 

 Broyden mixing:
  rms(total) = 0.57281E+00    rms(broyden)= 0.57263E+00
  rms(prec ) = 0.81156E+00
  weight for this iteration     100.00

 eigenvalues of (default mixing * dielectric matrix)
  average eigenvalue GAMMA=   0.6320
  1.7644  1.7644  0.7814  0.4309  0.2299  0.2299  0.1698  0.1698  0.1473

 Free energy of the ion-electron system (eV)
  ---------------------------------------------------
  alpha Z        PSCENC =       552.45268762
  Ewald energy   TEWEN  =     -5294.62434380
  -Hartree energ DENC   =      -639.86003899
  -exchange      EXHF   =         0.00000000
  -V(xc)+E(xc)   XCENC  =      -769.42003632
  PAW double counting   =      7503.26655006    -6697.19136043
  entropy T*S    EENTRO =        -0.12097957
  eigenvalues    EBANDS =       479.28430958
  atomic energy  EATOM  =      4687.48422623
  Solvation  Ediel_sol  =         0.00000000
  ---------------------------------------------------
  free energy    TOTEN  =      -178.72898562 eV

  energy without entropy =     -178.60800605  energy(sigma->0) =     -178.66849584


--------------------------------------------------------------------------------------------------------




--------------------------------------- Iteration      1(  15)  ---------------------------------------


    POTLOK:  cpu time    0.0305: real time    0.0306
    SETDIJ:  cpu time    0.0167: real time    0.0168
     EDDAV:  cpu time    2.6145: real time    2.6569
       DOS:  cpu time    0.0014: real time    0.0014
    CHARGE:  cpu time    0.0498: real time    0.0499
    MIXING:  cpu time    0.0021: real time    0.0021
    --------------------------------------------
      LOOP:  cpu time    2.7150: real time    2.7576

 eigenvalue-minimisations  :  2168
 total energy-change (2. order) : 0.1016748E+00  (-0.4917078E-01)
 number of electron     109.0000058 magnetization 
 augmentation part       43.4141721 magnetization 

 Broyden mixing:
  rms(total) = 0.40035E+00    rms(broyden)= 0.40030E+00
  rms(prec ) = 0.52886E+00
  weight for this iteration     100.00

 eigenvalues of (default mixing * dielectric matrix)
  average eigenvalue GAMMA=   0.6435
  1.8791  1.8791  0.7020  0.5510  0.5510  0.2193  0.1722  0.1722  0.1471  0.1619

 Free energy of the ion-electron system (eV)
  ---------------------------------------------------
  alpha Z        PSCENC =       552.45268762
  Ewald energy   TEWEN  =     -5294.62434380
  -Hartree energ DENC   =      -640.97491887
  -exchange      EXHF   =         0.00000000
  -V(xc)+E(xc)   XCENC  =      -769.36381105
  PAW double counting   =      7513.07405433    -6707.37507589
  entropy T*S    EENTRO =        -0.11745424
  eigenvalues    EBANDS =       480.81732484
  atomic energy  EATOM  =      4687.48422623
  Solvation  Ediel_sol  =         0.00000000
  ---------------------------------------------------
  free energy    TOTEN  =      -178.62731084 eV

  energy without entropy =     -178.50985660  energy(sigma->0) =     -178.56858372


--------------------------------------------------------------------------------------------------------




--------------------------------------- Iteration      1(  16)  ---------------------------------------


    POTLOK:  cpu time    0.0287: real time    0.0288
    SETDIJ:  cpu time    0.0169: real time    0.0169
     EDDAV:  cpu time    2.2053: real time    2.2124
       DOS:  cpu time    0.0015: real time    0.0015
    CHARGE:  cpu time    0.0502: real time    0.0502
    MIXING:  cpu time    0.0023: real time    0.0023
    --------------------------------------------
      LOOP:  cpu time    2.3048: real time    2.3121

 eigenvalue-minimisations  :  1984
 total energy-change (2. order) : 0.1549361E-01  (-0.9584744E-02)
 number of electron     109.0000059 magnetization 
 augmentation part       43.3420423 magnetization 

 Broyden mixing:
  rms(total) = 0.29924E+00    rms(broyden)= 0.29923E+00
  rms(prec ) = 0.41484E+00
  weight for this iteration     100.00

 eigenvalues of (default mixing * dielectric matrix)
  average eigenvalue GAMMA=   0.6377
  1.9209  1.9209  0.6667  0.6667  0.6551  0.3126  0.1471  0.1724  0.1724  0.1899
  0.1899

 Free energy of the ion-electron system (eV)
  ---------------------------------------------------
  alpha Z        PSCENC =       552.45268762
  Ewald energy   TEWEN  =     -5294.62434380
  -Hartree energ DENC   =      -641.54393417
  -exchange      EXHF   =         0.00000000
  -V(xc)+E(xc)   XCENC  =      -769.33065287
  PAW double counting   =      7522.59320254    -6717.39113487
  entropy T*S    EENTRO =        -0.11686847
  eigenvalues    EBANDS =       481.86500056
  atomic energy  EATOM  =      4687.48422623
  Solvation  Ediel_sol  =         0.00000000
  ---------------------------------------------------
  free energy    TOTEN  =      -178.61181723 eV

  energy without entropy =     -178.49494876  energy(sigma->0) =     -178.55338299


--------------------------------------------------------------------------------------------------------




--------------------------------------- Iteration      1(  17)  ---------------------------------------


    POTLOK:  cpu time    0.0292: real time    0.0294
    SETDIJ:  cpu time    0.0170: real time    0.0170
     EDDAV:  cpu time    2.8577: real time    2.8630
       DOS:  cpu time    0.0015: real time    0.0015
    CHARGE:  cpu time    0.0514: real time    0.0515
    MIXING:  cpu time    0.0027: real time    0.0027
    --------------------------------------------
      LOOP:  cpu time    2.9596: real time    2.9651

 eigenvalue-minimisations  :  2024
 total energy-change (2. order) : 0.1198823E-01  (-0.1218670E-01)
 number of electron     109.0000057 magnetization 
 augmentation part       43.3113528 magnetization 

 Broyden mixing:
  rms(total) = 0.24248E+00    rms(broyden)= 0.24247E+00
  rms(prec ) = 0.35036E+00
  weight for this iteration     100.00

 eigenvalues of (default mixing * dielectric matrix)
  average eigenvalue GAMMA=   0.7303
  2.5632  1.4925  1.4925  0.8431  0.8431  0.4849  0.1723  0.1723  0.2040  0.1947
  0.1459  0.1555

 Free energy of the ion-electron system (eV)
  ---------------------------------------------------
  alpha Z        PSCENC =       552.45268762
  Ewald energy   TEWEN  =     -5294.62434380
  -Hartree energ DENC   =      -641.67201931
  -exchange      EXHF   =         0.00000000
  -V(xc)+E(xc)   XCENC  =      -769.29360331
  PAW double counting   =      7535.11085869    -6730.36359390
  entropy T*S    EENTRO =        -0.11754856
  eigenvalues    EBANDS =       482.42350734
  atomic energy  EATOM  =      4687.48422623
  Solvation  Ediel_sol  =         0.00000000
  ---------------------------------------------------
  free energy    TOTEN  =      -178.59982900 eV

  energy without entropy =     -178.48228044  energy(sigma->0) =     -178.54105472


--------------------------------------------------------------------------------------------------------




--------------------------------------- Iteration      1(  18)  ---------------------------------------


    POTLOK:  cpu time    0.0296: real time    0.0303
    SETDIJ:  cpu time    0.0165: real time    0.0165
     EDDAV:  cpu time    2.3383: real time    3.7606
       DOS:  cpu time    0.0015: real time    0.0015
    CHARGE:  cpu time    0.0479: real time    0.0644
    MIXING:  cpu time    0.0026: real time    0.0026
    --------------------------------------------
      LOOP:  cpu time    2.4365: real time    3.8760

 eigenvalue-minimisations  :  1952
 total energy-change (2. order) : 0.1696836E-01  (-0.5958417E-02)
 number of electron     109.0000058 magnetization 
 augmentation part       43.2459036 magnetization 

 Broyden mixing:
  rms(total) = 0.15684E+00    rms(broyden)= 0.15683E+00
  rms(prec ) = 0.22766E+00
  weight for this iteration     100.00

 eigenvalues of (default mixing * dielectric matrix)
  average eigenvalue GAMMA=   0.6932
  2.6081  1.5265  1.5265  0.8393  0.8393  0.4833  0.1996  0.1996  0.1717  0.1717
  0.1622  0.1466  0.1367

 Free energy of the ion-electron system (eV)
  ---------------------------------------------------
  alpha Z        PSCENC =       552.45268762
  Ewald energy   TEWEN  =     -5294.62434380
  -Hartree energ DENC   =      -642.16779784
  -exchange      EXHF   =         0.00000000
  -V(xc)+E(xc)   XCENC  =      -769.26648975
  PAW double counting   =      7534.85210437    -6730.57513483
  entropy T*S    EENTRO =        -0.11706486
  eigenvalues    EBANDS =       483.37895223
  atomic energy  EATOM  =      4687.48422623
  Solvation  Ediel_sol  =         0.00000000
  ---------------------------------------------------
  free energy    TOTEN  =      -178.58286064 eV

  energy without entropy =     -178.46579577  energy(sigma->0) =     -178.52432820


--------------------------------------------------------------------------------------------------------




--------------------------------------- Iteration      1(  19)  ---------------------------------------


    POTLOK:  cpu time    0.0269: real time    0.0509
    SETDIJ:  cpu time    0.0158: real time    0.0278
     EDDAV:  cpu time    2.0906: real time    2.6962
       DOS:  cpu time    0.0015: real time    0.0015
    CHARGE:  cpu time    0.0515: real time    0.0516
    MIXING:  cpu time    0.0028: real time    0.0028
    --------------------------------------------
      LOOP:  cpu time    2.1891: real time    2.8309

 eigenvalue-minimisations  :  1952
 total energy-change (2. order) : 0.7197800E-02  (-0.2041854E-02)
 number of electron     109.0000057 magnetization 
 augmentation part       43.2144856 magnetization 

 Broyden mixing:
  rms(total) = 0.11043E+00    rms(broyden)= 0.11042E+00
  rms(prec ) = 0.16017E+00
  weight for this iteration     100.00

 eigenvalues of (default mixing * dielectric matrix)
  average eigenvalue GAMMA=   0.6765
  2.6399  1.5861  1.5861  0.8298  0.8298  0.4685  0.3051  0.2254  0.1733  0.1733
  0.1861  0.1462  0.1606  0.1606

 Free energy of the ion-electron system (eV)
  ---------------------------------------------------
  alpha Z        PSCENC =       552.45268762
  Ewald energy   TEWEN  =     -5294.62434380
  -Hartree energ DENC   =      -642.41264942
  -exchange      EXHF   =         0.00000000
  -V(xc)+E(xc)   XCENC  =      -769.25722566
  PAW double counting   =      7534.41156237    -6730.24756054
  entropy T*S    EENTRO =        -0.11718163
  eigenvalues    EBANDS =       483.73482199
  atomic energy  EATOM  =      4687.48422623
  Solvation  Ediel_sol  =         0.00000000
  ---------------------------------------------------
  free energy    TOTEN  =      -178.57566284 eV

  energy without entropy =     -178.45848121  energy(sigma->0) =     -178.51707202


--------------------------------------------------------------------------------------------------------




--------------------------------------- Iteration      1(  20)  ---------------------------------------


    POTLOK:  cpu time    0.0283: real time    0.0285
    SETDIJ:  cpu time    0.0171: real time    0.0171
     EDDAV:  cpu time    2.3451: real time    2.6048
       DOS:  cpu time    0.0015: real time    0.0015
    CHARGE:  cpu time    0.0503: real time    0.0504
    MIXING:  cpu time    0.0027: real time    0.0027
    --------------------------------------------
      LOOP:  cpu time    2.4451: real time    2.7050

 eigenvalue-minimisations  :  2056
 total energy-change (2. order) : 0.1465890E-02  (-0.5023407E-03)
 number of electron     109.0000057 magnetization 
 augmentation part       43.1952588 magnetization 

 Broyden mixing:
  rms(total) = 0.93522E-01    rms(broyden)= 0.93520E-01
  rms(prec ) = 0.13370E+00
  weight for this iteration     100.00

 eigenvalues of (default mixing * dielectric matrix)
  average eigenvalue GAMMA=   0.6922
  2.6804  1.7272  1.7272  0.8953  0.7330  0.7330  0.5111  0.2173  0.1724  0.1724
  0.1908  0.1908  0.1461  0.1597  0.1259

 Free energy of the ion-electron system (eV)
  ---------------------------------------------------
  alpha Z        PSCENC =       552.45268762
  Ewald energy   TEWEN  =     -5294.62434380
  -Hartree energ DENC   =      -642.54203462
  -exchange      EXHF   =         0.00000000
  -V(xc)+E(xc)   XCENC  =      -769.25520635
  PAW double counting   =      7533.23551636    -6729.12072268
  entropy T*S    EENTRO =        -0.11716337
  eigenvalues    EBANDS =       483.91284367
  atomic energy  EATOM  =      4687.48422623
  Solvation  Ediel_sol  =         0.00000000
  ---------------------------------------------------
  free energy    TOTEN  =      -178.57419695 eV

  energy without entropy =     -178.45703358  energy(sigma->0) =     -178.51561526


--------------------------------------------------------------------------------------------------------




--------------------------------------- Iteration      1(  21)  ---------------------------------------


    POTLOK:  cpu time    0.0286: real time    0.0287
    SETDIJ:  cpu time    0.0163: real time    0.0163
     EDDAV:  cpu time    2.5978: real time    2.6380
       DOS:  cpu time    0.0013: real time    0.0013
    CHARGE:  cpu time    0.0843: real time    0.0844
    MIXING:  cpu time    0.0024: real time    0.0024
    --------------------------------------------
      LOOP:  cpu time    2.7308: real time    2.7712

 eigenvalue-minimisations  :  1912
 total energy-change (2. order) : 0.3474910E-02  (-0.6494212E-03)
 number of electron     109.0000057 magnetization 
 augmentation part       43.1574499 magnetization 

 Broyden mixing:
  rms(total) = 0.51009E-01    rms(broyden)= 0.51003E-01
  rms(prec ) = 0.73477E-01
  weight for this iteration     100.00

 eigenvalues of (default mixing * dielectric matrix)
  average eigenvalue GAMMA=   0.7728
  2.5888  2.0313  2.0313  1.2109  0.8827  0.8827  0.8707  0.4951  0.1724  0.1724
  0.2037  0.2037  0.1838  0.1547  0.1460  0.1348

 Free energy of the ion-electron system (eV)
  ---------------------------------------------------
  alpha Z        PSCENC =       552.45268762
  Ewald energy   TEWEN  =     -5294.62434380
  -Hartree energ DENC   =      -642.93641455
  -exchange      EXHF   =         0.00000000
  -V(xc)+E(xc)   XCENC  =      -769.24935213
  PAW double counting   =      7528.72096147    -6724.76347011
  entropy T*S    EENTRO =        -0.11703973
  eigenvalues    EBANDS =       484.46202299
  atomic energy  EATOM  =      4687.48422623
  Solvation  Ediel_sol  =         0.00000000
  ---------------------------------------------------
  free energy    TOTEN  =      -178.57072204 eV

  energy without entropy =     -178.45368230  energy(sigma->0) =     -178.51220217


--------------------------------------------------------------------------------------------------------




--------------------------------------- Iteration      1(  22)  ---------------------------------------


    POTLOK:  cpu time    0.0279: real time    0.0281
    SETDIJ:  cpu time    0.0160: real time    0.0161
     EDDAV:  cpu time    2.4529: real time    3.5561
       DOS:  cpu time    0.0016: real time    0.0016
    CHARGE:  cpu time    0.0495: real time    0.0736
    MIXING:  cpu time    0.0031: real time    0.0031
    --------------------------------------------
      LOOP:  cpu time    2.5511: real time    3.6786

 eigenvalue-minimisations  :  2112
 total energy-change (2. order) : 0.6500354E-03  (-0.7890437E-03)
 number of electron     109.0000057 magnetization 
 augmentation part       43.1210102 magnetization 

 Broyden mixing:
  rms(total) = 0.26272E-01    rms(broyden)= 0.26264E-01
  rms(prec ) = 0.40611E-01
  weight for this iteration     100.00

 eigenvalues of (default mixing * dielectric matrix)
  average eigenvalue GAMMA=   0.7599
  2.2297  2.2297  2.0557  1.7216  0.9331  0.8455  0.8455  0.4956  0.1724  0.1724
  0.2018  0.2018  0.1890  0.1890  0.1549  0.1460  0.1345

 Free energy of the ion-electron system (eV)
  ---------------------------------------------------
  alpha Z        PSCENC =       552.45268762
  Ewald energy   TEWEN  =     -5294.62434380
  -Hartree energ DENC   =      -643.27082020
  -exchange      EXHF   =         0.00000000
  -V(xc)+E(xc)   XCENC  =      -769.24702701
  PAW double counting   =      7524.72484607    -6720.89144259
  entropy T*S    EENTRO =        -0.11723021
  eigenvalues    EBANDS =       484.91903189
  atomic energy  EATOM  =      4687.48422623
  Solvation  Ediel_sol  =         0.00000000
  ---------------------------------------------------
  free energy    TOTEN  =      -178.57007200 eV

  energy without entropy =     -178.45284179  energy(sigma->0) =     -178.51145690


--------------------------------------------------------------------------------------------------------




--------------------------------------- Iteration      1(  23)  ---------------------------------------


    POTLOK:  cpu time    0.0294: real time    0.0485
    SETDIJ:  cpu time    0.0167: real time    0.0287
     EDDAV:  cpu time    2.4973: real time    2.6086
       DOS:  cpu time    0.0015: real time    0.0015
    CHARGE:  cpu time    0.0501: real time    0.0502
    MIXING:  cpu time    0.0031: real time    0.0031
    --------------------------------------------
      LOOP:  cpu time    2.5982: real time    2.7407

 eigenvalue-minimisations  :  1768
 total energy-change (2. order) : 0.5155976E-03  (-0.4073048E-03)
 number of electron     109.0000057 magnetization 
 augmentation part       43.1079077 magnetization 

 Broyden mixing:
  rms(total) = 0.67772E-02    rms(broyden)= 0.67687E-02
  rms(prec ) = 0.97582E-02
  weight for this iteration     100.00

 eigenvalues of (default mixing * dielectric matrix)
  average eigenvalue GAMMA=   0.7915
  3.2716  2.0340  1.7336  1.4330  1.4330  0.7768  0.7768  0.7364  0.4957  0.1724
  0.1724  0.2043  0.2043  0.1882  0.1798  0.1549  0.1460  0.1345

 Free energy of the ion-electron system (eV)
  ---------------------------------------------------
  alpha Z        PSCENC =       552.45268762
  Ewald energy   TEWEN  =     -5294.62434380
  -Hartree energ DENC   =      -643.37922257
  -exchange      EXHF   =         0.00000000
  -V(xc)+E(xc)   XCENC  =      -769.24624632
  PAW double counting   =      7523.50602999    -6719.72372360
  entropy T*S    EENTRO =        -0.11713810
  eigenvalues    EBANDS =       485.07817415
  atomic energy  EATOM  =      4687.48422623
  Solvation  Ediel_sol  =         0.00000000
  ---------------------------------------------------
  free energy    TOTEN  =      -178.56955640 eV

  energy without entropy =     -178.45241831  energy(sigma->0) =     -178.51098735


--------------------------------------------------------------------------------------------------------




--------------------------------------- Iteration      1(  24)  ---------------------------------------


    POTLOK:  cpu time    0.0293: real time    0.0295
    SETDIJ:  cpu time    0.0169: real time    0.0177
     EDDAV:  cpu time    2.7033: real time    2.7115
       DOS:  cpu time    0.0014: real time    0.0014
    CHARGE:  cpu time    0.0522: real time    0.0524
    MIXING:  cpu time    0.0034: real time    0.0034
    --------------------------------------------
      LOOP:  cpu time    2.8067: real time    2.8159

 eigenvalue-minimisations  :  1808
 total energy-change (2. order) :-0.3258038E-04  (-0.7141389E-04)
 number of electron     109.0000057 magnetization 
 augmentation part       43.0998982 magnetization 

 Broyden mixing:
  rms(total) = 0.80267E-02    rms(broyden)= 0.80244E-02
  rms(prec ) = 0.10798E-01
  weight for this iteration     100.00

 eigenvalues of (default mixing * dielectric matrix)
  average eigenvalue GAMMA=   0.7822
  3.2464  2.0370  2.0370  1.4271  1.4271  0.7859  0.7859  0.7464  0.4957  0.3124
  0.1724  0.1724  0.2045  0.2045  0.1895  0.1813  0.1550  0.1460  0.1345

 Free energy of the ion-electron system (eV)
  ---------------------------------------------------
  alpha Z        PSCENC =       552.45268762
  Ewald energy   TEWEN  =     -5294.62434380
  -Hartree energ DENC   =      -643.42827178
  -exchange      EXHF   =         0.00000000
  -V(xc)+E(xc)   XCENC  =      -769.24374892
  PAW double counting   =      7523.38068649    -6719.65136339
  entropy T*S    EENTRO =        -0.11709035
  eigenvalues    EBANDS =       485.17762891
  atomic energy  EATOM  =      4687.48422623
  Solvation  Ediel_sol  =         0.00000000
  ---------------------------------------------------
  free energy    TOTEN  =      -178.56958898 eV

  energy without entropy =     -178.45249864  energy(sigma->0) =     -178.51104381


--------------------------------------------------------------------------------------------------------




--------------------------------------- Iteration      1(  25)  ---------------------------------------


    POTLOK:  cpu time    0.0297: real time    0.0299
    SETDIJ:  cpu time    0.0168: real time    0.0168
     EDDAV:  cpu time    2.2520: real time    2.2567
       DOS:  cpu time    0.0015: real time    0.0015
    CHARGE:  cpu time    0.0505: real time    0.0505
    MIXING:  cpu time    0.0069: real time    0.0069
    --------------------------------------------
      LOOP:  cpu time    2.3574: real time    2.3625

 eigenvalue-minimisations  :  1664
 total energy-change (2. order) : 0.1414346E-04  (-0.1786827E-04)
 number of electron     109.0000057 magnetization 
 augmentation part       43.1004674 magnetization 

 Broyden mixing:
  rms(total) = 0.64922E-02    rms(broyden)= 0.64919E-02
  rms(prec ) = 0.80090E-02
  weight for this iteration     100.00

 eigenvalues of (default mixing * dielectric matrix)
  average eigenvalue GAMMA=   0.7939
  2.4582  2.4582  2.3473  1.5074  1.5074  0.8717  0.8717  0.8041  0.8041  0.4961
  0.1724  0.1724  0.1345  0.1460  0.1549  0.2044  0.2044  0.1811  0.1935  0.1878

 Free energy of the ion-electron system (eV)
  ---------------------------------------------------
  alpha Z        PSCENC =       552.45268762
  Ewald energy   TEWEN  =     -5294.62434380
  -Hartree energ DENC   =      -643.40944213
  -exchange      EXHF   =         0.00000000
  -V(xc)+E(xc)   XCENC  =      -769.24390852
  PAW double counting   =      7523.60828934    -6719.88040343
  entropy T*S    EENTRO =        -0.11708111
  eigenvalues    EBANDS =       485.16040097
  atomic energy  EATOM  =      4687.48422623
  Solvation  Ediel_sol  =         0.00000000
  ---------------------------------------------------
  free energy    TOTEN  =      -178.56957484 eV

  energy without entropy =     -178.45249372  energy(sigma->0) =     -178.51103428


--------------------------------------------------------------------------------------------------------




--------------------------------------- Iteration      1(  26)  ---------------------------------------


    POTLOK:  cpu time    0.0546: real time    0.0548
    SETDIJ:  cpu time    0.0170: real time    0.0170
     EDDAV:  cpu time    1.8584: real time    2.1492
       DOS:  cpu time    0.0015: real time    0.0015
    CHARGE:  cpu time    0.0511: real time    0.0513
    MIXING:  cpu time    0.0039: real time    0.0039
    --------------------------------------------
      LOOP:  cpu time    1.9865: real time    2.2776

 eigenvalue-minimisations  :  1328
 total energy-change (2. order) : 0.1807852E-04  (-0.6477914E-05)
 number of electron     109.0000057 magnetization 
 augmentation part       43.1040260 magnetization 

 Broyden mixing:
  rms(total) = 0.19762E-02    rms(broyden)= 0.19749E-02
  rms(prec ) = 0.25512E-02
  weight for this iteration     100.00

 eigenvalues of (default mixing * dielectric matrix)
  average eigenvalue GAMMA=   0.7818
  2.7175  2.7175  1.6619  1.6619  1.6140  0.9114  0.9114  0.7842  0.7842  0.4961
  0.4068  0.1724  0.1724  0.1345  0.1460  0.1549  0.2041  0.2041  0.1976  0.1789
  0.1871

 Free energy of the ion-electron system (eV)
  ---------------------------------------------------
  alpha Z        PSCENC =       552.45268762
  Ewald energy   TEWEN  =     -5294.62434380
  -Hartree energ DENC   =      -643.36833530
  -exchange      EXHF   =         0.00000000
  -V(xc)+E(xc)   XCENC  =      -769.24530869
  PAW double counting   =      7523.97889468    -6720.22878919
  entropy T*S    EENTRO =        -0.11710327
  eigenvalues    EBANDS =       485.09851497
  atomic energy  EATOM  =      4687.48422623
  Solvation  Ediel_sol  =         0.00000000
  ---------------------------------------------------
  free energy    TOTEN  =      -178.56955676 eV

  energy without entropy =     -178.45245349  energy(sigma->0) =     -178.51100512


--------------------------------------------------------------------------------------------------------




--------------------------------------- Iteration      1(  27)  ---------------------------------------


    POTLOK:  cpu time    0.0292: real time    0.0294
    SETDIJ:  cpu time    0.0165: real time    0.0165
     EDDAV:  cpu time    1.0952: real time    1.1925
       DOS:  cpu time    0.0016: real time    0.0016
    --------------------------------------------
      LOOP:  cpu time    1.1424: real time    1.2399

 eigenvalue-minimisations  :   736
 total energy-change (2. order) : 0.2856614E-06  (-0.1463294E-05)
 number of electron     109.0000057 magnetization 
 augmentation part       43.1040260 magnetization 

 Free energy of the ion-electron system (eV)
  ---------------------------------------------------
  alpha Z        PSCENC =       552.45268762
  Ewald energy   TEWEN  =     -5294.62434380
  -Hartree energ DENC   =      -643.37290045
  -exchange      EXHF   =         0.00000000
  -V(xc)+E(xc)   XCENC  =      -769.24524319
  PAW double counting   =      7523.95354445    -6720.20627308
  entropy T*S    EENTRO =        -0.11708286
  eigenvalues    EBANDS =       485.10582861
  atomic energy  EATOM  =      4687.48422623
  Solvation  Ediel_sol  =         0.00000000
  ---------------------------------------------------
  free energy    TOTEN  =      -178.56955648 eV

  energy without entropy =     -178.45247361  energy(sigma->0) =     -178.51101504


--------------------------------------------------------------------------------------------------------




 average (electrostatic) potential at core
  the test charge radii are     1.2064  1.0103
  (the norm of the test charge is              1.0000)
       1 -39.2791       2 -38.9790       3 -39.1293       4 -39.1093       5 -39.1706
       6 -39.0382       7 -39.1643       8 -39.2630       9 -39.4207      10 -39.2269
      11 -39.3844      12 -39.1758      13 -39.1384      14 -39.1161      15 -39.1754
      16 -39.1652      17 -39.2304      18 -43.0260      19 -43.0114      20 -43.0167
 
 
 
 E-fermi :   6.2698     XC(G=0): -12.6492     alpha+bet :-15.2488


 k-point     1 :       0.0000    0.0000    0.0000
  band No.  band energies     occupation 
[...]
     18       4.0386      2.00000
     19       4.1114      2.00000
     20       4.3263      2.00000
     21       4.3887      2.00000
     22       4.6081      2.00000
     23       4.6307      2.00000
     24       4.6802      2.00000
     25       4.7073      2.00000
     26       4.8383      2.00000
     27       4.8719      2.00000
     28       4.9331      2.00000
     29       4.9769      2.00000
     30       5.1089      2.00000
     31       5.1974      2.00000
     32       5.2621      2.00000
     33       5.3372      2.00000
     34       5.3596      2.00000
     35       5.3965      2.00000
     36       5.4292      2.00000
     37       5.4498      2.00000
     38       5.4923      2.00000
     39       5.5377      2.00000
     40       5.6698      2.00000
     41       5.7788      2.00000
     42       5.8126      2.00000
     43       5.8897      2.00000
     44       6.0076      2.00000
     45       6.0344      2.00000
     46       6.0861      2.00000
     47       6.1229      2.00000
     48       6.1473      2.00000
     49       6.1605      2.00000
     50       6.1869      2.00000
     51       6.2249      1.99999
     52       6.2587      1.99995
     53       6.2882      1.99973
     54       6.3049      1.99933
     55       6.3582      1.99195
     56       6.4538      1.80549
     57       6.5295      1.17960
     58       6.9865      0.00000
     59       7.0076      0.00000
     60       7.1658      0.00000
     61       7.3736      0.00000
     62       7.4075      0.00000
     63       7.4674      0.00000
     64       7.5011      0.00000
     65       7.5487      0.00000
     66       7.6282      0.00000
     67       7.6732      0.00000
     68       7.7849      0.00000

 k-point     7 :       0.0000    0.5000    0.3333
  band No.  band energies     occupation 
      1       0.9925      2.00000
      2       1.1816      2.00000
      3       2.8565      2.00000
      4       3.0392      2.00000
      5       3.1363      2.00000
      6       3.2492      2.00000
      7       3.2515      2.00000
      8       3.2843      2.00000
      9       3.4532      2.00000
     10       3.4697      2.00000
     11       3.4992      2.00000
     12       3.5064      2.00000
     13       3.7404      2.00000
     14       3.7916      2.00000
     15       3.9009      2.00000
     16       3.9452      2.00000
     17       4.0598      2.00000
     18       4.1226      2.00000
     19       4.1619      2.00000
     20       4.1864      2.00000
     21       4.2253      2.00000
     22       4.2817      2.00000
     23       4.6360      2.00000
     24       4.7120      2.00000
     25       4.7900      2.00000
     26       4.8273      2.00000
     27       4.8353      2.00000
     28       4.8822      2.00000
     29       4.9383      2.00000
     30       4.9786      2.00000
     31       5.0155      2.00000
     32       5.1980      2.00000
     33       5.2378      2.00000
     34       5.3139      2.00000
     35       5.4199      2.00000
     36       5.4517      2.00000
     37       5.5648      2.00000
     38       5.6190      2.00000
     39       5.6430      2.00000
     40       5.7267      2.00000
     41       5.7767      2.00000
     42       5.8459      2.00000
     43       5.8790      2.00000
     44       5.9013      2.00000
     45       5.9679      2.00000
     46       5.9984      2.00000
     47       6.0185      2.00000
     48       6.0521      2.00000
     49       6.0816      2.00000
     50       6.1163      2.00000
     51       6.1443      2.00000
     52       6.1919      2.00000
     53       6.2470      1.99998
     54       6.3161      1.99883
     55       6.5190      1.29309
     56       6.6098      0.36398
     57       6.6439      0.16454
     58       6.6717      0.07455
     59       7.0301      0.00000
     60       7.1987      0.00000
     61       7.3003      0.00000
     62       7.4499      0.00000
     63       7.4883      0.00000
     64       7.5998      0.00000
     65       7.7191      0.00000
     66       7.7600      0.00000
     67       7.7670      0.00000
     68       7.8163      0.00000

 k-point     8 :       0.5000    0.5000    0.3333
  band No.  band energies     occupation 
      1       1.5592      2.00000
      2       1.8002      2.00000
      3       2.2090      2.00000
      4       2.2608      2.00000
      5       2.8790      2.00000
      6       2.9836      2.00000
      7       3.2659      2.00000
      8       3.4209      2.00000
      9       3.4783      2.00000
     10       3.5646      2.00000
     11       3.6176      2.00000
     12       3.6345      2.00000
     13       3.7891      2.00000
     14       3.8114      2.00000
     15       3.8392      2.00000
     16       3.8708      2.00000
     17       3.8722      2.00000
     18       3.9399      2.00000
     19       3.9926      2.00000
     20       4.0398      2.00000
     21       4.0783      2.00000
     22       4.1179      2.00000
     23       4.7162      2.00000
     24       4.7620      2.00000
     25       4.8272      2.00000
     26       4.9291      2.00000
     27       4.9849      2.00000
     28       5.0484      2.00000
     29       5.1149      2.00000
     30       5.1502      2.00000
     31       5.2110      2.00000
     32       5.2894      2.00000
     33       5.3405      2.00000
     34       5.3959      2.00000
     35       5.4613      2.00000
     36       5.4845      2.00000
     37       5.5172      2.00000
     38       5.5621      2.00000
     39       5.6054      2.00000
     40       5.6309      2.00000
     41       5.7139      2.00000
     42       5.8379      2.00000
     43       5.9012      2.00000
     44       5.9335      2.00000
     45       5.9959      2.00000
     46       6.0490      2.00000
     47       6.0625      2.00000
     48       6.1276      2.00000
     49       6.1893      2.00000
     50       6.2353      1.99999
     51       6.3152      1.99888
     52       6.3796      1.98112
     53       6.4086      1.94719
     54       6.4905      1.56388
     55       6.5520      0.92803
     56       6.6585      0.11034
     57       6.7185      0.01446
     58       6.7407      0.00578
     59       6.8417      0.00003
     60       6.9869      0.00000
     61       7.0295      0.00000
     62       7.0953      0.00000
     63       7.3094      0.00000
     64       7.4478      0.00000
     65       7.4762      0.00000
     66       7.5220      0.00000
     67       7.6225      0.00000
     68       7.6760      0.00000


--------------------------------------------------------------------------------------------------------


 soft charge-density along one line, spin component           1
         0         1         2         3         4         5         6         7         8         9
 total charge-density along one line
 
 pseudopotential strength for first ion, spin component:           1
 -1.119   0.000   0.011  -0.000  -0.005  -1.643   0.000   0.011
  0.000  -1.147   0.000  -0.012   0.000   0.000  -1.668   0.000
  0.011   0.000  -1.143   0.000  -0.008   0.011   0.000  -1.664
 -0.000  -0.012   0.000  -1.118   0.000  -0.000  -0.012   0.000
 -0.005   0.000  -0.008   0.000  -1.115  -0.005  -0.000  -0.008
 -1.643   0.000   0.011  -0.000  -0.005  -2.115   0.000   0.010
  0.000  -1.668   0.000  -0.012  -0.000   0.000  -2.140   0.000
  0.011   0.000  -1.664   0.000  -0.008   0.010   0.000  -2.136
 -0.000  -0.012   0.000  -1.640   0.000  -0.000  -0.012   0.000
 -0.005  -0.000  -0.008   0.000  -1.638  -0.005  -0.000  -0.007
  0.004   0.000   0.006  -0.000  -0.005   0.004   0.000   0.006
 -0.009  -0.000  -0.015   0.000   0.011  -0.008  -0.000  -0.014
  0.001  -0.000   0.002  -0.000   0.008   0.001  -0.000   0.002
 -0.000  -0.010  -0.000   0.001   0.000  -0.000  -0.010  -0.000
 -0.006  -0.000  -0.001  -0.000   0.002  -0.006  -0.000  -0.001
 -0.001   0.000  -0.005   0.000  -0.011  -0.001   0.000  -0.004
  0.000   0.012   0.000  -0.001  -0.000   0.000   0.012   0.000
  0.009   0.000   0.001   0.000  -0.002   0.009   0.000   0.001
 total augmentation occupancy for first ion, spin component:           1
  0.436   0.001  -0.019  -0.002  -0.072  -0.681  -0.001   0.043   0.003   0.171   0.002  -0.000  -0.009  -0.000  -0.001  -0.000
  0.001   0.485   0.001  -0.033   0.001  -0.001  -0.815  -0.001   0.066  -0.001   0.002   0.000   0.001  -0.083   0.000   0.000
 -0.019   0.001   0.500   0.000   0.061   0.044  -0.001  -0.772  -0.000  -0.113  -0.058  -0.002  -0.035   0.000  -0.009  -0.001
 -0.002  -0.033   0.000   0.587  -0.000   0.003   0.066  -0.000  -1.010   0.001  -0.000  -0.000   0.000  -0.025   0.001  -0.000
 -0.072   0.001   0.061  -0.000   0.543   0.171  -0.001  -0.108   0.001  -0.924   0.042   0.001   0.016  -0.000  -0.005   0.001
 -0.681  -0.001   0.044   0.003   0.171   1.786   0.001  -0.017  -0.004  -0.185  -0.014   0.000   0.020  -0.000  -0.019   0.000
 -0.001  -0.815  -0.001   0.066  -0.001   0.001   1.909   0.000  -0.077   0.002  -0.003  -0.000  -0.001   0.067  -0.000   0.000
  0.043  -0.001  -0.772  -0.000  -0.108  -0.017   0.000   1.797  -0.000   0.081   0.013   0.004   0.049  -0.001   0.010   0.003
  0.003   0.066  -0.000  -1.010   0.001  -0.004  -0.077  -0.000   2.106  -0.001   0.000   0.000  -0.000   0.027  -0.000   0.000
  0.171  -0.001  -0.113   0.001  -0.924  -0.185   0.002   0.081  -0.001   2.034   0.003  -0.002  -0.004   0.000  -0.011  -0.001
  0.002   0.002  -0.058  -0.000   0.042  -0.014  -0.003   0.013   0.000   0.003   2.057   0.047  -0.000  -0.001   0.000   0.002
 -0.000   0.000  -0.002  -0.000   0.001   0.000  -0.000   0.004   0.000  -0.002   0.047   0.001   0.001  -0.000   0.000   0.000
 -0.009   0.001  -0.035   0.000   0.016   0.020  -0.001   0.049  -0.000  -0.004  -0.000   0.001   0.390   0.000   0.002   0.011
 -0.000  -0.083   0.000  -0.025  -0.000  -0.000   0.067  -0.001   0.027   0.000  -0.001  -0.000   0.000   0.424  -0.000   0.000
 -0.001   0.000  -0.009   0.001  -0.005  -0.019  -0.000   0.010  -0.000  -0.011   0.000   0.000   0.002  -0.000   0.380   0.000
 -0.000   0.000  -0.001  -0.000   0.001   0.000   0.000   0.003   0.000  -0.001   0.002   0.000   0.011   0.000   0.000   0.000
 -0.000  -0.003   0.000  -0.001   0.000   0.000   0.005   0.000   0.001  -0.000   0.000   0.000   0.000   0.012   0.000   0.000
 -0.000  -0.000  -0.000   0.000   0.000  -0.001   0.000   0.001  -0.000  -0.001  -0.000   0.000   0.000   0.000   0.010   0.000


------------------------ aborting loop because EDIFF is reached ----------------------------------------


    CHARGE:  cpu time    0.0520: real time    0.0522
    FORLOC:  cpu time    0.0081: real time    0.0081
    FORNL :  cpu time    1.1484: real time    1.1534
    STRESS:  cpu time    1.2244: real time    1.2337
    FORCOR:  cpu time    0.0352: real time    0.0392
    FORHAR:  cpu time    0.0130: real time    0.0131
    MIXING:  cpu time    0.0018: real time    0.0018
    OFIELD:  cpu time    0.0000: real time    0.0000

  FORCE on cell =-STRESS in cart. coord.  units (eV):
  Direction    XX          YY          ZZ          XY          YZ          ZX
  --------------------------------------------------------------------------------------
  Alpha Z   568.05031   568.05031   568.05031
  Ewald   -1819.54403 -1792.37270 -1732.96123   -17.17566     1.29267     0.29930
  Hartree   157.16282   201.18420   274.02950   -11.60220     0.39886     0.09214
  E(xc)    -498.94520  -498.19565  -497.49994     0.05218    -0.04365    -0.02124
  Local     386.21085   316.47536   181.51118    28.18854    -1.61426    -0.38381
  n-local   -88.74716   -91.99335   -90.46230    -0.33182    -0.02082    -0.06247
  augment   448.99730   448.82169   448.27884     0.16965     0.03363     0.04204
  Kinetic   846.94522   848.04646   849.08605     0.68264    -0.04933     0.03252
  Fock        0.00000     0.00000     0.00000     0.00000     0.00000     0.00000
  -------------------------------------------------------------------------------------
  Total       0.13012     0.01631     0.03242    -0.01666    -0.00290    -0.00152
  in kB       0.82739     0.10371     0.20614    -0.10595    -0.01842    -0.00965
  external pressure =        0.38 kB  Pullay stress =        0.00 kB


 VOLUME and BASIS-vectors are now :
 -----------------------------------------------------------------------------
  energy-cutoff  :      267.88
  volume of cell :      251.96
      direct lattice vectors                 reciprocal lattice vectors
     6.306800909 -0.032480262  0.000396445     0.158715969  0.030480545  0.000002938
    -1.841854980  9.590767156 -0.003249690     0.000537505  0.104370200  0.000086861
     0.000589811 -0.003473147  4.169617460    -0.000014672  0.000078445  0.239830222

  length of vectors
     6.306884558  9.766025546  4.169618948     0.161616281  0.104371620  0.239830235


 FORCES acting on ions
    electron-ion (+dipol)            ewald-force                    non-local-force                 convergence-correction
 -----------------------------------------------------------------------------------------------
   0.125E+02 0.261E+02 -.255E+00   -.127E+02 -.262E+02 0.260E+00   0.191E+00 0.118E+00 -.281E-02   -.193E-02 0.611E-02 -.183E-03
   -.243E+02 0.151E+02 -.114E-01   0.251E+02 -.152E+02 0.202E-01   -.822E+00 0.149E+00 -.891E-02   -.773E-02 0.311E-01 0.261E-05
   -.565E+02 -.203E+02 0.163E-01   0.573E+02 0.201E+02 -.402E-02   -.896E+00 0.276E+00 -.111E-01   0.107E-01 -.225E-01 -.138E-03
   0.625E+00 -.644E+01 -.109E+00   -.548E+00 0.654E+01 0.141E+00   -.805E-01 -.832E-01 -.292E-01   0.408E-02 -.160E-01 -.416E-03
   0.523E+02 -.436E+02 -.184E+00   -.533E+02 0.435E+02 0.222E+00   0.999E+00 0.257E-01 -.347E-01   -.979E-02 -.203E-01 -.373E-03
   0.302E+02 0.288E+02 0.149E+00   -.310E+02 -.291E+02 -.174E+00   0.865E+00 0.190E+00 0.222E-01   0.620E-02 0.349E-01 0.273E-03
   0.299E+02 0.216E+02 0.949E-01   -.302E+02 -.216E+02 -.130E+00   0.274E+00 0.120E-01 0.319E-01   -.108E-01 0.541E-02 0.487E-03
   -.213E+02 -.616E+02 -.413E+00   0.216E+02 0.623E+02 0.421E+00   -.301E+00 -.685E+00 -.584E-02   0.102E-02 -.163E-01 -.350E-03
   -.355E+02 0.139E+02 0.167E+00   0.360E+02 -.138E+02 -.182E+00   -.425E+00 -.175E+00 0.117E-01   0.904E-02 0.179E-01 0.454E-03
   0.354E+02 -.283E+02 0.369E-04   -.357E+02 0.279E+02 0.181E-01   0.390E+00 0.459E+00 -.151E-01   -.523E-02 -.152E-01 -.377E-03
   0.359E+02 0.418E+02 0.362E+00   -.364E+02 -.425E+02 -.379E+00   0.495E+00 0.649E+00 0.144E-01   -.240E-02 0.110E-01 0.349E-03
   -.335E+02 -.365E+02 -.856E-01   0.336E+02 0.365E+02 0.106E+00   -.152E+00 0.778E-01 -.177E-01   0.927E-02 -.246E-01 -.347E-03
   0.316E+02 0.232E+02 -.410E-01   -.320E+02 -.233E+02 0.561E-01   0.416E+00 0.259E-01 -.137E-01   0.242E-02 0.124E-01 -.888E-04
   0.520E+02 0.145E+01 0.607E-03   -.528E+02 -.117E+01 -.192E-01   0.812E+00 -.254E+00 0.182E-01   -.617E-02 -.208E-01 0.492E-04
   -.239E+02 0.627E+01 0.102E+00   0.242E+02 -.629E+01 -.130E+00   -.331E+00 -.147E-01 0.248E-01   -.444E-02 0.354E-01 0.512E-03
   -.546E+02 0.193E+02 0.181E+00   0.557E+02 -.189E+02 -.219E+00   -.110E+01 -.344E+00 0.366E-01   0.906E-02 -.160E-01 0.217E-03
   -.321E+02 0.185E+01 -.413E-01   0.324E+02 -.139E+01 0.643E-01   -.300E+00 -.459E+00 -.202E-01   -.359E-02 -.149E-02 -.268E-03
   0.187E+02 0.316E+02 0.176E+00   -.188E+02 -.318E+02 -.152E+00   0.836E-01 0.207E+00 -.263E-01   -.990E-03 -.323E-01 0.607E-03
   -.120E+02 -.621E+02 -.198E+00   0.121E+02 0.623E+02 0.161E+00   -.732E-01 -.139E+00 0.391E-01   -.696E-02 -.282E-01 -.603E-03
   -.559E+01 0.279E+02 0.703E-01   0.559E+01 -.279E+02 -.816E-01   -.185E-01 -.842E-01 0.996E-02   0.885E-02 0.570E-01 0.392E-03
 -----------------------------------------------------------------------------------------------
   -.239E-01 0.466E-01 -.198E-01   0.542E-13 -.107E-13 -.903E-14   0.278E-01 -.464E-01 0.234E-01   0.587E-03 -.253E-02 0.196E-03
 
 
 POSITION                                       TOTAL-FORCE (eV/Angst)
 -----------------------------------------------------------------------------------
      4.22595      2.23379      3.50074         0.006623      0.002514      0.001483
      0.23967      3.21757      3.50476         0.000155     -0.001671     -0.000350
     -0.76759      7.95312      3.50322         0.005666      0.003877      0.000832
      1.86041      1.27245      3.49788         0.000404     -0.001524      0.002796
      1.66688      8.88678      3.49838         0.000155     -0.001003      0.002203
      2.54558      4.13611      3.50966        -0.000172     -0.004397     -0.002012
      0.94553      6.08708      3.51244         0.001122      0.002439     -0.002832
      5.79138      0.24452      3.49918        -0.000052     -0.002661      0.001954
      4.86114      5.08359      3.51185        -0.006288      0.004902     -0.002657
      3.85627      0.75595      1.41390         0.001962     -0.006037      0.002477
      2.93685      5.62967      1.42760        -0.001303     -0.007588     -0.002828
     -0.38249      9.41384      1.41102        -0.004313      0.002828      0.002441
      2.26718      2.73495      1.41744        -0.002628     -0.002902      0.001209
      1.31278      7.53818      1.42146        -0.002061      0.001074     -0.000574
      0.53069      4.64537      1.42665         0.000142     -0.000152     -0.003124
     -1.09857      6.61851      1.42554        -0.003876      0.007644     -0.001922
     -0.14870      1.81334      1.41403         0.006644      0.004301      0.002399
      3.25198      6.96686      3.50779        -0.004944     -0.002378     -0.001600
      3.62241      8.49609      1.41684         0.003616     -0.001705      0.001168
      4.54032      3.66715      1.42244        -0.000851      0.002440     -0.001062
 -----------------------------------------------------------------------------------
    total drift:                                0.004494     -0.002330      0.003780


--------------------------------------------------------------------------------------------------------



  FREE ENERGIE OF THE ION-ELECTRON SYSTEM (eV)
  ---------------------------------------------------
  free  energy   TOTEN  =      -178.70125550 eV

  energy  without entropy=     -178.59488052  energy(sigma->0) =     -178.64806801
 
 d Force =-0.2065410E-04[-0.276E-04,-0.137E-04]  d Energy = 0.3827359E-04-0.589E-04
 d Force =-0.3560412E-01[-0.357E-01,-0.355E-01]  d Ewald  =-0.9762846E+00 0.941E+00


--------------------------------------------------------------------------------------------------------


    POTLOK:  cpu time    0.0452: real time    0.0452


--------------------------------------------------------------------------------------------------------




--------------------------------------------------------------------------------------------------------


  
 reached required accuracy - stopping structural energy minimisation
     LOOP+:  cpu time   18.1823: real time   20.1643
    4ORBIT:  cpu time    0.0000: real time    0.0000

 total amount of memory used by VASP MPI-rank0    48221. kBytes
=======================================================================

   base      :      30000. kBytes
   nonl-proj :       6801. kBytes
   fftplans  :       1515. kBytes
   grid      :       3171. kBytes
   one-center:        311. kBytes
   wavefun   :       6423. kBytes
 
  
  
 General timing and accounting informations for this job:
 ========================================================
  
                  Total CPU time used (sec):      350.353
                            User time (sec):      348.164
                          System time (sec):        2.189
                         Elapsed time (sec):      402.872
  
                   Maximum memory used (kb):      182804.
                   Average memory used (kb):           0.
  
                          Minor page faults:       339137
                          Major page faults:            0
                 Voluntary context switches:          383
