 running on    4 total cores
 distrk:  each k-point on    4 cores,    1 groups
 distr:  one band on    1 cores,    4 groups
 using from now: INCAR     
 vasp.5.4.4.18Apr17-6-g9f103f2a35 (build Jul 11 2019 11:52:51) complex          
  
 POSCAR found type information on POSCAR  V  Fe
 POSCAR found :  2 types and      20 ions
 scaLAPACK will be used

 ----------------------------------------------------------------------------- 
|                                                                             |
|  ADVICE TO THIS USER RUNNING 'VASP/VAMP'   (HEAR YOUR MASTER'S VOICE ...):  |
|                                                                             |
|      You have a (more or less) 'large supercell' and for larger cells       |
|      it might be more efficient to use real space projection opertators     |
|      So try LREAL= Auto  in the INCAR   file.                               |
|      Mind:          For very  accurate calculation you might also keep the  |
|      reciprocal projection scheme          (i.e. LREAL=.FALSE.)             |
|                                                                             |
 ----------------------------------------------------------------------------- 

 LDA part: xc-table for Pade appr. of Perdew
 POSCAR, INCAR and KPOINTS ok, starting setup
 FFT: planning ...
 WAVECAR not read
 entering main loop
       N       E                     dE             d eps       ncg     rms          rms(c)
DAV:   1     0.619397661022E+03    0.61940E+03   -0.22438E+04  1088   0.109E+03
DAV:   2    -0.812699628782E+02   -0.70067E+03   -0.67683E+03  1088   0.341E+02
DAV:   3    -0.197047246686E+03   -0.11578E+03   -0.10945E+03  1816   0.146E+02
DAV:   4    -0.208236894541E+03   -0.11190E+02   -0.10570E+02  1744   0.597E+01
DAV:   5    -0.208807018655E+03   -0.57012E+00   -0.55950E+00  1736   0.109E+01    0.573E+01
DAV:   6    -0.235268376194E+03   -0.26461E+02   -0.50977E+02  1984   0.185E+02    0.884E+01
DAV:   7    -0.182204663808E+03    0.53064E+02   -0.41101E+02  2036   0.127E+02    0.240E+01
DAV:   8    -0.199076406348E+03   -0.16872E+02   -0.21175E+02  2152   0.105E+02    0.485E+01
DAV:   9    -0.180294102059E+03    0.18782E+02   -0.14799E+02  2176   0.941E+01    0.189E+01
DAV:  10    -0.179183127246E+03    0.11110E+01   -0.15101E+01  2120   0.278E+01    0.114E+01
DAV:  11    -0.179072617909E+03    0.11051E+00   -0.15246E+00  1928   0.100E+01    0.102E+01
DAV:  12    -0.179297431928E+03   -0.22481E+00   -0.31568E+00  2056   0.143E+01    0.111E+01
DAV:  13    -0.179007468951E+03    0.28996E+00   -0.54363E+00  1712   0.150E+01    0.931E+00
DAV:  14    -0.178728985625E+03    0.27848E+00   -0.12904E+00  2160   0.851E+00    0.573E+00
DAV:  15    -0.178627310838E+03    0.10167E+00   -0.49171E-01  2168   0.541E+00    0.400E+00
DAV:  16    -0.178611817231E+03    0.15494E-01   -0.95847E-02  1984   0.264E+00    0.299E+00
DAV:  17    -0.178599828998E+03    0.11988E-01   -0.12187E-01  2024   0.276E+00    0.242E+00
DAV:  18    -0.178582860637E+03    0.16968E-01   -0.59584E-02  1952   0.206E+00    0.157E+00
DAV:  19    -0.178575662836E+03    0.71978E-02   -0.20419E-02  1952   0.130E+00    0.110E+00
DAV:  20    -0.178574196946E+03    0.14659E-02   -0.50234E-03  2056   0.559E-01    0.935E-01
DAV:  21    -0.178570722036E+03    0.34749E-02   -0.64942E-03  1912   0.622E-01    0.510E-01
DAV:  22    -0.178570072000E+03    0.65004E-03   -0.78904E-03  2112   0.588E-01    0.263E-01
DAV:  23    -0.178569556403E+03    0.51560E-03   -0.40730E-03  1768   0.434E-01    0.678E-02
DAV:  24    -0.178569588983E+03   -0.32580E-04   -0.71414E-04  1808   0.197E-01    0.803E-02
DAV:  25    -0.178569574840E+03    0.14143E-04   -0.17868E-04  1664   0.990E-02    0.649E-02
DAV:  26    -0.178569556761E+03    0.18079E-04   -0.64779E-05  1328   0.672E-02    0.198E-02
DAV:  27    -0.178569556476E+03    0.28566E-06   -0.14633E-05   736   0.393E-02
   1 F= -.17856956E+03 E0= -.17851102E+03  d E =-.178570E+03
 curvature:   0.00 expect dE= 0.000E+00 dE for cont linesearch  0.000E+00
 trial: gam= 0.00000 g(F)=  0.694E-03 g(S)=  0.590E+00 ort = 0.000E+00 (trialstep = 0.100E+01)
 search vector abs. value=  0.591E+00
 bond charge predicted
       N       E                     dE             d eps       ncg     rms          rms(c)
DAV:   1    -0.181530833190E+03   -0.29613E+01   -0.63276E+01  1088   0.686E+01    0.211E+01
DAV:   2    -0.228231906898E+03   -0.46701E+02   -0.23963E+02  2008   0.181E+02    0.770E+01
DAV:   3    -0.183120437420E+03    0.45111E+02   -0.12564E+02  2016   0.763E+01    0.254E+01
DAV:   4    -0.179786359345E+03    0.33341E+01   -0.39034E+01  2152   0.574E+01    0.131E+01
DAV:   5    -0.178994633356E+03    0.79173E+00   -0.13938E+01  2088   0.331E+01    0.942E+00
DAV:   6    -0.178884336440E+03    0.11030E+00   -0.44921E+00  2048   0.201E+01    0.731E+00
DAV:   7    -0.178535270277E+03    0.34907E+00   -0.25651E+00  2072   0.154E+01    0.414E+00
DAV:   8    -0.178525820088E+03    0.94502E-02   -0.31184E-01  1952   0.475E+00    0.384E+00
DAV:   9    -0.178511403727E+03    0.14416E-01   -0.55385E-02  1888   0.220E+00    0.341E+00
DAV:  10    -0.178495633510E+03    0.15770E-01   -0.42865E-02  2104   0.176E+00    0.291E+00
DAV:  11    -0.178468523845E+03    0.27110E-01   -0.59918E-02  2144   0.229E+00    0.179E+00
DAV:  12    -0.178460380682E+03    0.81432E-02   -0.28736E-02  1968   0.157E+00    0.129E+00
DAV:  13    -0.178458953127E+03    0.14276E-02   -0.73383E-03  2040   0.631E-01    0.101E+00
DAV:  14    -0.178457855271E+03    0.10979E-02   -0.30198E-03  1864   0.411E-01    0.853E-01
DAV:  15    -0.178455793665E+03    0.20616E-02   -0.26202E-03  2144   0.431E-01    0.531E-01
DAV:  16    -0.178455048730E+03    0.74494E-03   -0.15586E-03  2152   0.281E-01    0.355E-01
DAV:  17    -0.178454545688E+03    0.50304E-03   -0.11589E-03  2160   0.272E-01    0.125E-01
DAV:  18    -0.178454539275E+03    0.64134E-05   -0.18173E-04  1576   0.982E-02    0.105E-01
DAV:  19    -0.178454504844E+03    0.34431E-04   -0.43330E-05  1168   0.635E-02    0.431E-02
DAV:  20    -0.178454505092E+03   -0.24854E-06   -0.42761E-05  1144   0.383E-02
   2 F= -.17845451E+03 E0= -.17840647E+03  d E =0.115051E+00
 trial-energy change:    0.115051  1 .order    0.133201   -0.591063    0.857466
 step:   0.4264(harm=  0.4080)  dis= 0.00103  next Energy=  -178.696988 (dE=-0.127E+00)
 bond charge predicted
       N       E                     dE             d eps       ncg     rms          rms(c)
DAV:   1    -0.179725167790E+03   -0.12707E+01   -0.21062E+01  1088   0.405E+01    0.129E+01
DAV:   2    -0.207756303255E+03   -0.28031E+02   -0.17055E+02  1936   0.121E+02    0.553E+01
DAV:   3    -0.178072508280E+03    0.29684E+02   -0.72661E+01  2008   0.561E+01    0.422E+00
DAV:   4    -0.178994837738E+03   -0.92233E+00   -0.11120E+01  1848   0.205E+01    0.512E+00
DAV:   5    -0.178739720880E+03    0.25512E+00   -0.27801E+00  2008   0.145E+01    0.183E+00
DAV:   6    -0.178794228486E+03   -0.54508E-01   -0.90044E-01  2160   0.797E+00    0.315E+00
DAV:   7    -0.178713064928E+03    0.81164E-01   -0.50232E-01  2160   0.610E+00    0.153E+00
DAV:   8    -0.178703630837E+03    0.94341E-02   -0.99196E-02  2064   0.295E+00    0.102E+00
DAV:   9    -0.178699756338E+03    0.38745E-02   -0.32551E-02  2096   0.171E+00    0.648E-01
DAV:  10    -0.178696982143E+03    0.27742E-02   -0.20208E-02  2064   0.118E+00    0.334E-01
DAV:  11    -0.178697365939E+03   -0.38380E-03   -0.65441E-03  2096   0.694E-01    0.359E-01
DAV:  12    -0.178696594271E+03    0.77167E-03   -0.38743E-03  2096   0.554E-01    0.192E-01
DAV:  13    -0.178696529395E+03    0.64876E-04   -0.10232E-03  2016   0.296E-01    0.159E-01
DAV:  14    -0.178696435079E+03    0.94317E-04   -0.12294E-03  1656   0.287E-01    0.512E-02
DAV:  15    -0.178696436172E+03   -0.10936E-05   -0.24815E-04  1704   0.112E-01    0.404E-02
DAV:  16    -0.178696425229E+03    0.10943E-04   -0.97231E-05  1424   0.783E-02    0.110E-02
DAV:  17    -0.178696428817E+03   -0.35886E-05   -0.20746E-05   680   0.417E-02
   3 F= -.17869643E+03 E0= -.17864236E+03  d E =-.126872E+00
 curvature:  -0.20 expect dE=-0.908E-03 dE for cont linesearch -0.813E-05
 ZBRENT: interpolating
 opt :   0.4230  next Energy=  -178.696437 (dE=-0.127E+00)
 bond charge predicted
       N       E                     dE             d eps       ncg     rms          rms(c)
DAV:   1    -0.178696459022E+03   -0.33793E-04   -0.76431E-04  1136   0.238E-01    0.793E-02
DAV:   2    -0.178697781110E+03   -0.13221E-02   -0.54907E-03  2160   0.731E-01    0.486E-01
DAV:   3    -0.178696414663E+03    0.13664E-02   -0.47601E-03  2168   0.659E-01    0.448E-02
DAV:   4    -0.178696428942E+03   -0.14279E-04   -0.32339E-04  1896   0.159E-01    0.478E-02
DAV:   5    -0.178696418218E+03    0.10724E-04   -0.81171E-05  1416   0.996E-02    0.213E-02
DAV:   6    -0.178696413146E+03    0.50722E-05   -0.19198E-05   768   0.460E-02
   4 F= -.17869641E+03 E0= -.17864230E+03  d E =-.126857E+00
 curvature:  -0.21 expect dE=-0.912E-03 dE for cont linesearch -0.367E-05
 ZBRENT: interpolating
 opt :   0.4243  next Energy=  -178.696415 (dE=-0.127E+00)
 bond charge predicted
       N       E                     dE             d eps       ncg     rms          rms(c)
DAV:   1    -0.178696424474E+03   -0.62559E-05   -0.14335E-04  1232   0.987E-02    0.277E-02
DAV:   2    -0.178696571691E+03   -0.14722E-03   -0.61866E-04  2136   0.254E-01    0.158E-01
DAV:   3    -0.178696422064E+03    0.14963E-03   -0.53590E-04  2136   0.224E-01    0.179E-02
DAV:   4    -0.178696422319E+03   -0.25438E-06   -0.29877E-05   976   0.597E-02
   5 F= -.17869642E+03 E0= -.17864232E+03  d E =-.126866E+00
 curvature:  -0.13 expect dE=-0.550E-03 dE for cont linesearch -0.114E-04
 ZBRENT: interpolating
 opt :   0.4256  next Energy=  -178.696431 (dE=-0.127E+00)
 bond charge predicted
       N       E                     dE             d eps       ncg     rms          rms(c)
DAV:   1    -0.178696432303E+03   -0.10239E-04   -0.11747E-04  1168   0.946E-02    0.326E-02
DAV:   2    -0.178696675446E+03   -0.24314E-03   -0.10588E-03  2144   0.315E-01    0.205E-01
DAV:   3    -0.178696428401E+03    0.24705E-03   -0.85089E-04  2144   0.286E-01    0.235E-02
DAV:   4    -0.178696426906E+03    0.14949E-05   -0.64290E-05  1344   0.706E-02
   6 F= -.17869643E+03 E0= -.17864234E+03  d E =-.126870E+00
 curvature:  -0.02 expect dE=-0.980E-04 dE for cont linesearch -0.148E-05
 ZBRENT: interpolating
 opt :   0.4261  next Energy=  -178.696430 (dE=-0.127E+00)
 bond charge predicted
       N       E                     dE             d eps       ncg     rms          rms(c)
DAV:   1    -0.178696429545E+03   -0.11447E-05   -0.26020E-05   684   0.558E-02    0.170E-02
DAV:   2    -0.178696490868E+03   -0.61323E-04   -0.25915E-04  2080   0.164E-01    0.102E-01
DAV:   3    -0.178696428922E+03    0.61946E-04   -0.21395E-04  2056   0.154E-01    0.137E-02
DAV:   4    -0.178696427892E+03    0.10301E-05   -0.15003E-05   748   0.355E-02
   7 F= -.17869643E+03 E0= -.17864235E+03  d E =-.126871E+00
 curvature:  -0.01 expect dE=-0.597E-04 dE for cont linesearch -0.189E-08
 trial: gam= 0.00785 g(F)=  0.139E-03 g(S)=  0.422E-02 ort =-0.286E-03 (trialstep = 0.885E+00)
 search vector abs. value=  0.439E-02
 bond charge predicted
       N       E                     dE             d eps       ncg     rms          rms(c)
DAV:   1    -0.178701215962E+03   -0.47870E-02   -0.15160E-01  1088   0.162E+00    0.296E-01
DAV:   2    -0.178701153408E+03    0.62555E-04   -0.15793E-02  2128   0.793E-01    0.357E-01
DAV:   3    -0.178700337190E+03    0.81622E-03   -0.15411E-02  2168   0.994E-01    0.266E-01
DAV:   4    -0.178701729121E+03   -0.13919E-02   -0.10495E-02  2112   0.105E+00    0.567E-01
DAV:   5    -0.178699519584E+03    0.22095E-02   -0.90687E-03  2112   0.890E-01    0.129E-01
DAV:   6    -0.178699445475E+03    0.74110E-04   -0.10265E-03  2080   0.267E-01    0.489E-02
DAV:   7    -0.178699444552E+03    0.92299E-06   -0.21825E-04  1952   0.138E-01    0.373E-02
DAV:   8    -0.178699427011E+03    0.17541E-04   -0.90136E-05  1392   0.887E-02    0.121E-02
DAV:   9    -0.178699426630E+03    0.38157E-06   -0.22950E-05   784   0.455E-02
   8 F= -.17869943E+03 E0= -.17864583E+03  d E =-.299874E-02
 trial-energy change:   -0.002999  1 .order   -0.003024   -0.003853   -0.002195
 step:   2.0576(harm=  2.0576)  dis= 0.00181  next Energy=  -178.700906 (dE=-0.448E-02)
 bond charge predicted
       N       E                     dE             d eps       ncg     rms          rms(c)
DAV:   1    -0.178703897448E+03   -0.44704E-02   -0.26698E-01  1088   0.214E+00    0.393E-01
DAV:   2    -0.178703959546E+03   -0.62098E-04   -0.28825E-02  2152   0.110E+00    0.494E-01
DAV:   3    -0.178702308650E+03    0.16509E-02   -0.26978E-02  2168   0.135E+00    0.346E-01
DAV:   4    -0.178704631940E+03   -0.23233E-02   -0.18463E-02  2096   0.138E+00    0.728E-01
DAV:   5    -0.178700966624E+03    0.36653E-02   -0.15922E-02  2096   0.118E+00    0.194E-01
DAV:   6    -0.178700789268E+03    0.17736E-03   -0.20302E-03  2096   0.382E-01    0.699E-02
DAV:   7    -0.178700784373E+03    0.48958E-05   -0.40682E-04  1960   0.189E-01    0.481E-02
DAV:   8    -0.178700755568E+03    0.28805E-04   -0.18177E-04  1784   0.118E-01    0.159E-02
DAV:   9    -0.178700754158E+03    0.14100E-05   -0.33373E-05   976   0.587E-02
   9 F= -.17870075E+03 E0= -.17864764E+03  d E =-.432627E-02
 curvature:  -1.04 expect dE=-0.534E-03 dE for cont linesearch -0.158E-05
 trial: gam= 0.13256 g(F)=  0.217E-03 g(S)=  0.298E-03 ort =-0.818E-04 (trialstep = 0.112E+01)
 search vector abs. value=  0.571E-03
 bond charge predicted
       N       E                     dE             d eps       ncg     rms          rms(c)
DAV:   1    -0.178701350628E+03   -0.59506E-03   -0.38545E-02  1096   0.812E-01    0.156E-01
DAV:   2    -0.178704372588E+03   -0.30220E-02   -0.15896E-02  2160   0.118E+00    0.739E-01
DAV:   3    -0.178701219768E+03    0.31528E-02   -0.11432E-02  2160   0.104E+00    0.107E-01
DAV:   4    -0.178701302264E+03   -0.82496E-04   -0.21329E-03  2128   0.373E-01    0.131E-01
DAV:   5    -0.178701225186E+03    0.77078E-04   -0.11585E-03  2088   0.340E-01    0.117E-01
DAV:   6    -0.178701126845E+03    0.98341E-04   -0.63634E-04  2120   0.237E-01    0.330E-02
DAV:   7    -0.178701127824E+03   -0.97917E-06   -0.11259E-04  1664   0.931E-02    0.281E-02
DAV:   8    -0.178701116512E+03    0.11312E-04   -0.35864E-05   976   0.660E-02    0.113E-02
DAV:   9    -0.178701117375E+03   -0.86333E-06   -0.28232E-05   744   0.336E-02
  10 F= -.17870112E+03 E0= -.17864790E+03  d E =-.363217E-03
 trial-energy change:   -0.000363  1 .order   -0.000381   -0.000565   -0.000198
 step:   1.7253(harm=  1.7253)  dis= 0.00182  next Energy=  -178.701189 (dE=-0.435E-03)
 bond charge predicted
       N       E                     dE             d eps       ncg     rms          rms(c)
DAV:   1    -0.178701237928E+03   -0.12142E-03   -0.11264E-02  1096   0.441E-01    0.833E-02
DAV:   2    -0.178702035677E+03   -0.79775E-03   -0.43671E-03  2160   0.611E-01    0.379E-01
DAV:   3    -0.178701202353E+03    0.83332E-03   -0.31132E-03  2160   0.541E-01    0.600E-02
DAV:   4    -0.178701228688E+03   -0.26335E-04   -0.62336E-04  2128   0.207E-01    0.778E-02
DAV:   5    -0.178701207926E+03    0.20762E-04   -0.35832E-04  2088   0.194E-01    0.678E-02
DAV:   6    -0.178701173259E+03    0.34667E-04   -0.22920E-04  1984   0.135E-01    0.174E-02
DAV:   7    -0.178701172536E+03    0.72303E-06   -0.22207E-05   792   0.538E-02
  11 F= -.17870117E+03 E0= -.17864793E+03  d E =-.418378E-03
 curvature:  -0.98 expect dE=-0.196E-03 dE for cont linesearch -0.223E-06
 trial: gam= 0.32986 g(F)=  0.488E-04 g(S)=  0.152E-03 ort = 0.114E-04 (trialstep = 0.124E+01)
 search vector abs. value=  0.271E-03
 bond charge predicted
       N       E                     dE             d eps       ncg     rms          rms(c)
DAV:   1    -0.178702042285E+03   -0.86903E-03   -0.31458E-02  1104   0.124E+00    0.394E-01
DAV:   2    -0.178736355999E+03   -0.34314E-01   -0.14797E-01  2160   0.380E+00    0.247E+00
DAV:   3    -0.178701216380E+03    0.35140E-01   -0.12294E-01  2168   0.337E+00    0.235E-01
DAV:   4    -0.178701401971E+03   -0.18559E-03   -0.77131E-03  1808   0.772E-01    0.190E-01
DAV:   5    -0.178701361527E+03    0.40444E-04   -0.22457E-03  1792   0.485E-01    0.124E-01
DAV:   6    -0.178701232762E+03    0.12876E-03   -0.12209E-03  1880   0.265E-01    0.534E-02
DAV:   7    -0.178701228318E+03    0.44438E-05   -0.19167E-04  1912   0.116E-01    0.370E-02
DAV:   8    -0.178701213110E+03    0.15208E-04   -0.75841E-05  1344   0.782E-02    0.108E-02
DAV:   9    -0.178701217231E+03   -0.41214E-05   -0.44522E-05  1048   0.536E-02
  12 F= -.17870122E+03 E0= -.17864809E+03  d E =-.446951E-04
 trial-energy change:   -0.000045  1 .order   -0.000007   -0.000254    0.000240
 step:   0.6382(harm=  0.6382)  dis= 0.00044  next Energy=  -178.701238 (dE=-0.654E-04)
 bond charge predicted
       N       E                     dE             d eps       ncg     rms          rms(c)
DAV:   1    -0.178701467182E+03   -0.25407E-03   -0.73739E-03  1096   0.601E-01    0.192E-01
DAV:   2    -0.178709696976E+03   -0.82298E-02   -0.35909E-02  2160   0.186E+00    0.120E+00
DAV:   3    -0.178701261968E+03    0.84350E-02   -0.28749E-02  2168   0.162E+00    0.115E-01
DAV:   4    -0.178701304509E+03   -0.42541E-04   -0.17928E-03  1864   0.369E-01    0.906E-02
DAV:   5    -0.178701289258E+03    0.15250E-04   -0.49446E-04  1832   0.227E-01    0.599E-02
DAV:   6    -0.178701258661E+03    0.30597E-04   -0.27475E-04  1832   0.129E-01    0.232E-02
DAV:   7    -0.178701255505E+03    0.31564E-05   -0.26634E-05   880   0.565E-02
  13 F= -.17870126E+03 E0= -.17864807E+03  d E =-.829686E-04
 curvature:  -0.42 expect dE=-0.318E-04 dE for cont linesearch -0.565E-07
 trial: gam= 0.40023 g(F)=  0.300E-04 g(S)=  0.454E-04 ort =-0.603E-05 (trialstep = 0.112E+01)
 search vector abs. value=  0.114E-03
 reached required accuracy - stopping structural energy minimisation
