unknown system                          
           1
     6.393987    0.000000    0.000000
    -1.817693    9.648867    0.000000
     0.000326   -0.002117    4.199257
   V    Fe
  17   3
Direct configuration=     1
   0.73898000  0.23585000  0.83953700
   0.13615100  0.33631700  0.84080100
   0.12042600  0.82991800  0.84080200
   0.33381200  0.13405700  0.83875800
   0.53543400  0.92871900  0.83955800
   0.53020900  0.43342000  0.84220800
   0.33581100  0.63615300  0.84317100
   0.92652300  0.02897600  0.83895500
   0.92658100  0.53347000  0.84284200
   0.63519800  0.08104600  0.33891000
   0.63787500  0.58922100  0.34305400
   0.22608700  0.98231400  0.33897200
   0.44303500  0.28676200  0.34008900
   0.43831500  0.78767900  0.34152900
   0.22605700  0.48527300  0.34279000
   0.02731100  0.69026300  0.34263700
   0.03142600  0.18936700  0.33906400
   0.72857500  0.72906900  0.84168700
   0.83383500  0.88878800  0.34018900
   0.83237900  0.38534700  0.34138600
unknown system                          
           1
     6.243249   -0.012618    0.000387
    -1.793882    9.448507   -0.001214
     0.000576   -0.002553    4.113848
   V    Fe
  17   3
Direct configuration=     2
   0.73899058  0.23590862  0.83955649
   0.13626663  0.33631542  0.84079324
   0.12034972  0.82977858  0.84079876
   0.33395251  0.13409387  0.83880065
   0.53541111  0.92868249  0.83957239
   0.53003586  0.43344681  0.84216844
   0.33581726  0.63618306  0.84309654
   0.92647111  0.02900241  0.83897750
   0.92654924  0.53348719  0.84281064
   0.63522197  0.08087952  0.33894938
   0.63791015  0.58927847  0.34299495
   0.22620206  0.98220557  0.33900570
   0.44319313  0.28694961  0.34007988
   0.43823806  0.78777217  0.34151710
   0.22596567  0.48515690  0.34275096
   0.02741449  0.69036726  0.34256720
   0.03124301  0.18940058  0.33911508
   0.72847250  0.72880460  0.84172884
   0.83392629  0.88903762  0.34026314
   0.83238864  0.38525824  0.34139211
unknown system                          
           1
     6.329708   -0.005381    0.000165
    -1.807539    9.563427   -0.000518
     0.000433   -0.002303    4.162836
   V    Fe
  17   3
Direct configuration=     3
   0.73898428  0.23587428  0.83954507
   0.13619868  0.33631626  0.84079779
   0.12039473  0.82986030  0.84080068
   0.33386989  0.13407216  0.83877568
   0.53542461  0.92870389  0.83956397
   0.53013757  0.43343124  0.84219159
   0.33581354  0.63616545  0.84314013
   0.92650157  0.02898698  0.83896432
   0.92656788  0.53347715  0.84282900
   0.63520810  0.08097701  0.33892635
   0.63788942  0.58924478  0.34302952
   0.22613459  0.98226899  0.33898599
   0.44309996  0.28683960  0.34008520
   0.43828315  0.78771766  0.34152405
   0.22601949  0.48522498  0.34277383
   0.02735354  0.69030611  0.34260805
   0.03135050  0.18938105  0.33908516
   0.72853308  0.72895955  0.84170438
   0.83387232  0.88889133  0.34021969
   0.83238309  0.38531022  0.34138855
unknown system                          
           1
     6.330231   -0.005337    0.000164
    -1.807622    9.564124   -0.000513
     0.000432   -0.002302    4.163133
   V    Fe
  17   3
Direct configuration=     4
   0.73898425  0.23587407  0.83954500
   0.13619828  0.33631626  0.84079782
   0.12039500  0.82986079  0.84080069
   0.33386940  0.13407203  0.83877553
   0.53542469  0.92870402  0.83956392
   0.53013818  0.43343115  0.84219173
   0.33581352  0.63616535  0.84314039
   0.92650175  0.02898689  0.83896424
   0.92656799  0.53347709  0.84282911
   0.63520802  0.08097760  0.33892622
   0.63788930  0.58924458  0.34302972
   0.22613418  0.98226937  0.33898588
   0.44309941  0.28683894  0.34008523
   0.43828342  0.78771733  0.34152409
   0.22601981  0.48522538  0.34277397
   0.02735317  0.69030575  0.34260830
   0.03135114  0.18938094  0.33908498
   0.72853344  0.72896047  0.84170424
   0.83387200  0.88889046  0.34021943
   0.83238306  0.38531053  0.34138853
unknown system                          
           1
     6.330023   -0.005354    0.000164
    -1.807589    9.563847   -0.000515
     0.000432   -0.002302    4.163015
   V    Fe
  17   3
Direct configuration=     5
   0.73898426  0.23587415  0.83954503
   0.13619844  0.33631626  0.84079781
   0.12039489  0.82986060  0.84080068
   0.33386960  0.13407208  0.83877559
   0.53542466  0.92870397  0.83956394
   0.53013794  0.43343119  0.84219167
   0.33581353  0.63616539  0.84314029
   0.92650168  0.02898692  0.83896427
   0.92656795  0.53347711  0.84282906
   0.63520805  0.08097736  0.33892627
   0.63788934  0.58924466  0.34302964
   0.22613434  0.98226922  0.33898592
   0.44309963  0.28683920  0.34008522
   0.43828332  0.78771746  0.34152407
   0.22601969  0.48522522  0.34277392
   0.02735332  0.69030589  0.34260820
   0.03135088  0.18938098  0.33908505
   0.72853330  0.72896010  0.84170430
   0.83387212  0.88889081  0.34021954
   0.83238307  0.38531041  0.34138854
unknown system                          
           1
     6.329834   -0.005370    0.000165
    -1.807559    9.563595   -0.000517
     0.000433   -0.002303    4.162907
   V    Fe
  17   3
Direct configuration=     6
   0.73898428  0.23587423  0.83954505
   0.13619859  0.33631626  0.84079780
   0.12039479  0.82986042  0.84080068
   0.33386977  0.13407213  0.83877564
   0.53542463  0.92870392  0.83956396
   0.53013772  0.43343122  0.84219162
   0.33581354  0.63616543  0.84314019
   0.92650161  0.02898696  0.83896430
   0.92656791  0.53347713  0.84282902
   0.63520808  0.08097715  0.33892632
   0.63788939  0.58924473  0.34302957
   0.22613449  0.98226908  0.33898596
   0.44309983  0.28683944  0.34008520
   0.43828322  0.78771758  0.34152406
   0.22601957  0.48522507  0.34277387
   0.02735345  0.69030602  0.34260811
   0.03135065  0.18938103  0.33908512
   0.72853317  0.72895977  0.84170435
   0.83387224  0.88889112  0.34021963
   0.83238308  0.38531030  0.34138855
unknown system                          
           1
     6.329763   -0.005376    0.000165
    -1.807548    9.563501   -0.000517
     0.000433   -0.002303    4.162867
   V    Fe
  17   3
Direct configuration=     7
   0.73898428  0.23587425  0.83954506
   0.13619864  0.33631626  0.84079779
   0.12039476  0.82986036  0.84080068
   0.33386984  0.13407215  0.83877566
   0.53542462  0.92870391  0.83956397
   0.53013764  0.43343123  0.84219160
   0.33581354  0.63616544  0.84314016
   0.92650159  0.02898697  0.83896431
   0.92656789  0.53347714  0.84282901
   0.63520809  0.08097707  0.33892634
   0.63788941  0.58924476  0.34302954
   0.22613455  0.98226903  0.33898598
   0.44309990  0.28683953  0.34008520
   0.43828318  0.78771762  0.34152405
   0.22601953  0.48522502  0.34277385
   0.02735350  0.69030607  0.34260808
   0.03135057  0.18938104  0.33908514
   0.72853312  0.72895964  0.84170437
   0.83387228  0.88889124  0.34021967
   0.83238309  0.38531026  0.34138855
unknown system                          
           1
     6.322035   -0.015853    0.000417
    -1.821166    9.569319   -0.001377
     0.000602   -0.002647    4.166930
   V    Fe
  17   3
Direct configuration=     8
   0.73897595  0.23586898  0.83957816
   0.13603096  0.33629685  0.84079145
   0.12035041  0.82986817  0.84079608
   0.33392646  0.13406072  0.83881510
   0.53544481  0.92873839  0.83958019
   0.53023407  0.43346350  0.84215051
   0.33575560  0.63618655  0.84307221
   0.92653140  0.02901730  0.83900017
   0.92654634  0.53343153  0.84278219
   0.63516728  0.08101199  0.33896094
   0.63791134  0.58927654  0.34296309
   0.22625961  0.98227721  0.33901952
   0.44318738  0.28689039  0.34008822
   0.43824881  0.78767251  0.34151427
   0.22595399  0.48519443  0.34272851
   0.02733296  0.69025167  0.34255200
   0.03137590  0.18934721  0.33913254
   0.72854664  0.72896511  0.84175483
   0.83385147  0.88890751  0.34027039
   0.83238861  0.38528244  0.34138863
unknown system                          
           1
     6.311799   -0.029729    0.000752
    -1.839201    9.577024   -0.002515
     0.000825   -0.003102    4.172310
   V    Fe
  17   3
Direct configuration=     9
   0.73896489  0.23586199  0.83962196
   0.13580849  0.33627093  0.84078306
   0.12029161  0.82987844  0.84079000
   0.33400153  0.13404567  0.83886726
   0.53547168  0.92878407  0.83960167
   0.53036206  0.43350634  0.84209614
   0.33567881  0.63621440  0.84298231
   0.92657101  0.02905750  0.83904762
   0.92651762  0.53337113  0.84272024
   0.63511324  0.08105814  0.33900673
   0.63794053  0.58931863  0.34287518
   0.22642552  0.98228821  0.33906389
   0.44330354  0.28695784  0.34009222
   0.43820310  0.78761275  0.34150133
   0.22586698  0.48515385  0.34266853
   0.02730559  0.69017962  0.34247778
   0.03140942  0.18930248  0.33919524
   0.72856458  0.72897237  0.84182159
   0.83382391  0.88892902  0.34033752
   0.83239587  0.38524563  0.34138873
unknown system                          
           1
     6.309299   -0.031245    0.000574
    -1.840730    9.586096   -0.002891
     0.000708   -0.003292    4.171493
   V    Fe
  17   3
Direct configuration=    10
   0.73886256  0.23577820  0.83965822
   0.13598043  0.33626242  0.84079190
   0.12044002  0.82991356  0.84079828
   0.33404378  0.13408558  0.83891388
   0.53545864  0.92874850  0.83964129
   0.53022008  0.43343144  0.84205522
   0.33564207  0.63615803  0.84292136
   0.92661589  0.02899849  0.83909365
   0.92652982  0.53343162  0.84264967
   0.63510282  0.08109358  0.33904878
   0.63783527  0.58930687  0.34283237
   0.22633347  0.98237088  0.33910181
   0.44325918  0.28687090  0.34010646
   0.43816551  0.78759541  0.34149227
   0.22584371  0.48520633  0.34259372
   0.02734530  0.69023308  0.34245367
   0.03153983  0.18929196  0.33922851
   0.72854410  0.72909592  0.84180176
   0.83385861  0.88886267  0.34037608
   0.83239892  0.38527355  0.34138009
unknown system                          
           1
     6.307946   -0.032065    0.000478
    -1.841557    9.591003   -0.003095
     0.000644   -0.003395    4.171052
   V    Fe
  17   3
Direct configuration=    11
   0.73880720  0.23573292  0.83967784
   0.13607346  0.33625783  0.84079669
   0.12052033  0.82993256  0.84080276
   0.33406664  0.13410715  0.83893910
   0.53545158  0.92872928  0.83966273
   0.53014326  0.43339095  0.84203308
   0.33562219  0.63612757  0.84288838
   0.92664017  0.02896662  0.83911855
   0.92653642  0.53346430  0.84261150
   0.63509717  0.08111274  0.33907152
   0.63777832  0.58930051  0.34280921
   0.22628366  0.98241555  0.33912232
   0.44323518  0.28682392  0.34011417
   0.43814517  0.78758604  0.34148736
   0.22583112  0.48523468  0.34255325
   0.02736678  0.69026198  0.34244064
   0.03161039  0.18928629  0.33924650
   0.72853302  0.72916267  0.84179104
   0.83387738  0.88882682  0.34039695
   0.83240057  0.38528863  0.34137541
unknown system                          
           1
     6.305719   -0.032872    0.000319
    -1.842136    9.590545   -0.003396
     0.000539   -0.003547    4.168263
   V    Fe
  17   3
Direct configuration=    12
   0.73883895  0.23570060  0.83971402
   0.13616826  0.33624487  0.84079587
   0.12066871  0.82998706  0.84082117
   0.33407631  0.13411169  0.83899909
   0.53543944  0.92870209  0.83971342
   0.53007004  0.43332997  0.84198671
   0.33561645  0.63611853  0.84282083
   0.92665401  0.02890928  0.83916508
   0.92646764  0.53352098  0.84254090
   0.63509937  0.08107759  0.33912625
   0.63767536  0.58924622  0.34275406
   0.22619076  0.98246531  0.33917317
   0.44317547  0.28675588  0.34013844
   0.43811777  0.78759396  0.34147521
   0.22582347  0.48525931  0.34247183
   0.02739020  0.69035206  0.34240475
   0.03173628  0.18931499  0.33929499
   0.72847934  0.72920607  0.84175360
   0.83392774  0.88879093  0.34043278
   0.83240442  0.38532162  0.34135685
unknown system                          
           1
     6.306801   -0.032480    0.000396
    -1.841855    9.590767   -0.003250
     0.000590   -0.003473    4.169617
   V    Fe
  17   3
Direct configuration=    13
   0.73882353  0.23571629  0.83969644
   0.13612220  0.33625116  0.84079627
   0.12059662  0.82996058  0.84081222
   0.33407161  0.13410948  0.83896993
   0.53544534  0.92871530  0.83968878
   0.53010562  0.43335959  0.84200925
   0.33561924  0.63612292  0.84285365
   0.92664729  0.02893712  0.83914247
   0.92650105  0.53349346  0.84257521
   0.63509831  0.08109466  0.33909966
   0.63772539  0.58927259  0.34278087
   0.22623589  0.98244114  0.33914846
   0.44320448  0.28678893  0.34012664
   0.43813108  0.78759011  0.34148112
   0.22582719  0.48524735  0.34251140
   0.02737882  0.69030831  0.34242219
   0.03167512  0.18930104  0.33927142
   0.72850542  0.72918499  0.84177180
   0.83390327  0.88880836  0.34041536
   0.83240255  0.38530560  0.34136587
