  20  20   0   0
  0.1295360E+02  0.6294426E-09  0.8001585E-09  0.5143851E-09  0.5000000E-15
  1.000000000000000E-004
  CAR 
 unknown system                          
      9.16254876     -1.25970845  301      6.81578183      1.00000000
     -1.260  0.0000E+00  0.0000E+00
     -1.225  0.0000E+00  0.0000E+00
     -1.190  0.0000E+00  0.0000E+00
     -1.155  0.0000E+00  0.0000E+00
     -1.121  0.0000E+00  0.0000E+00
     -1.086  0.0000E+00  0.0000E+00
     -1.051  0.0000E+00  0.0000E+00
     -1.017  0.0000E+00  0.0000E+00
     -0.982  0.0000E+00  0.0000E+00
     -0.947  0.0000E+00  0.0000E+00
     -0.912  0.0000E+00  0.0000E+00
     -0.878  0.0000E+00  0.0000E+00
     -0.843  0.7989E-18  0.2776E-19
     -0.808  0.6312E-16  0.2220E-17
     -0.773  0.2644E-14  0.9409E-16
     -0.739  0.8839E-13  0.3165E-14
     -0.704  0.2327E-11  0.8400E-13
     -0.669  0.4827E-10  0.1761E-11
     -0.634  0.7893E-09  0.2918E-10
     -0.600  0.1017E-07  0.3826E-09
     -0.565  0.1034E-06  0.3973E-08
     -0.530  0.8281E-06  0.3274E-07
     -0.495  0.5233E-05  0.2145E-06
     -0.461  0.2609E-04  0.1121E-05
     -0.426  0.1026E-03  0.4685E-05
     -0.391  0.3183E-03  0.1574E-04
     -0.356  0.7795E-03  0.4282E-04
     -0.322  0.1506E-02  0.9515E-04
     -0.287  0.2298E-02  0.1750E-03
     -0.252  0.2766E-02  0.2711E-03
     -0.217  0.2629E-02  0.3624E-03
     -0.183  0.1972E-02  0.4309E-03
     -0.148  0.1167E-02  0.4715E-03
     -0.113  0.5455E-03  0.4904E-03
     -0.079  0.2012E-03  0.4974E-03
     -0.044  0.5854E-04  0.4994E-03
     -0.009  0.1344E-04  0.4999E-03
      0.026  0.2435E-05  0.5000E-03
      0.060  0.3527E-06  0.5000E-03
      0.095  0.9273E-07  0.5000E-03
      0.130  0.4636E-06  0.5000E-03
      0.165  0.3118E-05  0.5001E-03
      0.199  0.1666E-04  0.5007E-03
      0.234  0.7027E-04  0.5031E-03
      0.269  0.2338E-03  0.5113E-03
      0.304  0.6140E-03  0.5326E-03
      0.338  0.1273E-02  0.5768E-03
      0.373  0.2090E-02  0.6494E-03
      0.408  0.2731E-02  0.7443E-03
      0.443  0.2907E-02  0.8453E-03
      0.477  0.2706E-02  0.9393E-03
      0.512  0.2593E-02  0.1029E-02
      0.547  0.2994E-02  0.1133E-02
      0.582  0.3876E-02  0.1268E-02
      0.616  0.4762E-02  0.1434E-02
      0.651  0.5130E-02  0.1612E-02
      0.686  0.4830E-02  0.1780E-02
      0.721  0.4181E-02  0.1925E-02
      0.755  0.3653E-02  0.2052E-02
      0.790  0.3409E-02  0.2170E-02
      0.825  0.3191E-02  0.2281E-02
      0.859  0.2679E-02  0.2374E-02
      0.894  0.1873E-02  0.2439E-02
      0.929  0.1056E-02  0.2476E-02
      0.964  0.4805E-03  0.2493E-02
      0.998  0.2084E-03  0.2500E-02
      1.033  0.2035E-03  0.2507E-02
      1.068  0.4853E-03  0.2524E-02
      1.103  0.1158E-02  0.2564E-02
      1.137  0.2277E-02  0.2643E-02
      1.172  0.3658E-02  0.2770E-02
      1.207  0.4854E-02  0.2939E-02
      1.242  0.5429E-02  0.3127E-02
      1.276  0.5342E-02  0.3313E-02
      1.311  0.5017E-02  0.3487E-02
      1.346  0.5004E-02  0.3661E-02
      1.381  0.5572E-02  0.3855E-02
      1.415  0.6593E-02  0.4084E-02
      1.450  0.7670E-02  0.4350E-02
      1.485  0.8305E-02  0.4639E-02
      1.520  0.8147E-02  0.4922E-02
      1.554  0.7286E-02  0.5175E-02
      1.589  0.6290E-02  0.5393E-02
      1.624  0.5788E-02  0.5594E-02
      1.659  0.5886E-02  0.5799E-02
      1.693  0.6015E-02  0.6008E-02
      1.728  0.5484E-02  0.6198E-02
      1.763  0.4165E-02  0.6343E-02
      1.797  0.2562E-02  0.6432E-02
      1.832  0.1273E-02  0.6476E-02
      1.867  0.5559E-03  0.6496E-02
      1.902  0.3906E-03  0.6509E-02
      1.936  0.7624E-03  0.6536E-02
      1.971  0.1783E-02  0.6598E-02
      2.006  0.3514E-02  0.6720E-02
      2.041  0.5713E-02  0.6918E-02
      2.075  0.7871E-02  0.7192E-02
      2.110  0.9623E-02  0.7526E-02
      2.145  0.1098E-01  0.7907E-02
      2.180  0.1205E-01  0.8326E-02
      2.214  0.1267E-01  0.8766E-02
      2.249  0.1264E-01  0.9205E-02
      2.284  0.1215E-01  0.9628E-02
      2.319  0.1173E-01  0.1004E-01
      2.353  0.1181E-01  0.1045E-01
      2.388  0.1235E-01  0.1087E-01
      2.423  0.1282E-01  0.1132E-01
      2.458  0.1264E-01  0.1176E-01
      2.492  0.1157E-01  0.1216E-01
      2.527  0.9860E-02  0.1250E-01
      2.562  0.8109E-02  0.1279E-01
      2.597  0.7039E-02  0.1303E-01
      2.631  0.7209E-02  0.1328E-01
      2.666  0.8729E-02  0.1358E-01
      2.701  0.1135E-01  0.1398E-01
      2.735  0.1484E-01  0.1449E-01
      2.770  0.1916E-01  0.1516E-01
      2.805  0.2408E-01  0.1599E-01
      2.840  0.2886E-01  0.1700E-01
      2.874  0.3249E-01  0.1813E-01
      2.909  0.3427E-01  0.1932E-01
      2.944  0.3431E-01  0.2051E-01
      2.979  0.3359E-01  0.2168E-01
      3.013  0.3348E-01  0.2284E-01
      3.048  0.3474E-01  0.2405E-01
      3.083  0.3690E-01  0.2533E-01
      3.118  0.3880E-01  0.2668E-01
      3.152  0.3978E-01  0.2806E-01
      3.187  0.4005E-01  0.2945E-01
      3.222  0.4002E-01  0.3084E-01
      3.257  0.3964E-01  0.3222E-01
      3.291  0.3872E-01  0.3356E-01
      3.326  0.3755E-01  0.3487E-01
      3.361  0.3676E-01  0.3614E-01
      3.396  0.3659E-01  0.3741E-01
      3.430  0.3641E-01  0.3868E-01
      3.465  0.3551E-01  0.3991E-01
      3.500  0.3415E-01  0.4110E-01
      3.535  0.3352E-01  0.4226E-01
      3.569  0.3461E-01  0.4347E-01
      3.604  0.3732E-01  0.4476E-01
      3.639  0.4082E-01  0.4618E-01
      3.673  0.4438E-01  0.4772E-01
      3.708  0.4766E-01  0.4938E-01
      3.743  0.5046E-01  0.5113E-01
      3.778  0.5255E-01  0.5296E-01
      3.812  0.5382E-01  0.5483E-01
      3.847  0.5454E-01  0.5672E-01
      3.882  0.5535E-01  0.5865E-01
      3.917  0.5692E-01  0.6062E-01
      3.951  0.5934E-01  0.6268E-01
      3.986  0.6155E-01  0.6482E-01
      4.021  0.6171E-01  0.6697E-01
      4.056  0.5850E-01  0.6900E-01
      4.090  0.5235E-01  0.7082E-01
      4.125  0.4544E-01  0.7240E-01
      4.160  0.4019E-01  0.7379E-01
      4.195  0.3754E-01  0.7510E-01
      4.229  0.3694E-01  0.7638E-01
      4.264  0.3762E-01  0.7769E-01
      4.299  0.3958E-01  0.7906E-01
      4.334  0.4274E-01  0.8055E-01
      4.368  0.4616E-01  0.8215E-01
      4.403  0.4871E-01  0.8384E-01
      4.438  0.5019E-01  0.8559E-01
      4.473  0.5112E-01  0.8736E-01
      4.507  0.5195E-01  0.8917E-01
      4.542  0.5298E-01  0.9101E-01
      4.577  0.5466E-01  0.9291E-01
      4.611  0.5699E-01  0.9489E-01
      4.646  0.5903E-01  0.9694E-01
      4.681  0.5961E-01  0.9901E-01
      4.716  0.5835E-01  0.1010E+00
      4.750  0.5599E-01  0.1030E+00
      4.785  0.5391E-01  0.1049E+00
      4.820  0.5342E-01  0.1067E+00
      4.855  0.5507E-01  0.1086E+00
      4.889  0.5833E-01  0.1106E+00
      4.924  0.6190E-01  0.1128E+00
      4.959  0.6461E-01  0.1150E+00
      4.994  0.6616E-01  0.1173E+00
      5.028  0.6709E-01  0.1197E+00
      5.063  0.6775E-01  0.1220E+00
      5.098  0.6775E-01  0.1244E+00
      5.133  0.6653E-01  0.1267E+00
      5.167  0.6437E-01  0.1289E+00
      5.202  0.6231E-01  0.1311E+00
      5.237  0.6104E-01  0.1332E+00
      5.272  0.6050E-01  0.1353E+00
      5.306  0.6037E-01  0.1374E+00
      5.341  0.6044E-01  0.1395E+00
      5.376  0.6038E-01  0.1416E+00
      5.411  0.5971E-01  0.1437E+00
      5.445  0.5840E-01  0.1457E+00
      5.480  0.5709E-01  0.1477E+00
      5.515  0.5687E-01  0.1497E+00
      5.549  0.5846E-01  0.1517E+00
      5.584  0.6121E-01  0.1538E+00
      5.619  0.6324E-01  0.1560E+00
      5.654  0.6303E-01  0.1582E+00
      5.688  0.6099E-01  0.1603E+00
      5.723  0.5892E-01  0.1624E+00
      5.758  0.5820E-01  0.1644E+00
      5.793  0.5882E-01  0.1664E+00
      5.827  0.5982E-01  0.1685E+00
      5.862  0.6019E-01  0.1706E+00
      5.897  0.5950E-01  0.1727E+00
      5.932  0.5804E-01  0.1747E+00
      5.966  0.5676E-01  0.1767E+00
      6.001  0.5670E-01  0.1786E+00
      6.036  0.5795E-01  0.1807E+00
      6.071  0.5932E-01  0.1827E+00
      6.105  0.5925E-01  0.1848E+00
      6.140  0.5728E-01  0.1868E+00
      6.175  0.5452E-01  0.1887E+00
      6.210  0.5265E-01  0.1905E+00
      6.244  0.5236E-01  0.1923E+00
      6.279  0.5280E-01  0.1941E+00
      6.314  0.5240E-01  0.1960E+00
      6.349  0.5032E-01  0.1977E+00
      6.383  0.4723E-01  0.1993E+00
      6.418  0.4483E-01  0.2009E+00
      6.453  0.4451E-01  0.2025E+00
      6.488  0.4646E-01  0.2041E+00
      6.522  0.4948E-01  0.2058E+00
      6.557  0.5145E-01  0.2076E+00
      6.592  0.5068E-01  0.2093E+00
      6.626  0.4718E-01  0.2110E+00
      6.661  0.4257E-01  0.2125E+00
      6.696  0.3858E-01  0.2138E+00
      6.731  0.3595E-01  0.2150E+00
      6.765  0.3467E-01  0.2162E+00
      6.800  0.3463E-01  0.2174E+00
      6.835  0.3578E-01  0.2187E+00
      6.870  0.3768E-01  0.2200E+00
      6.904  0.3935E-01  0.2214E+00
      6.939  0.3977E-01  0.2227E+00
      6.974  0.3872E-01  0.2241E+00
      7.009  0.3713E-01  0.2254E+00
      7.043  0.3646E-01  0.2267E+00
      7.078  0.3746E-01  0.2280E+00
      7.113  0.3939E-01  0.2293E+00
      7.148  0.4064E-01  0.2307E+00
      7.182  0.4030E-01  0.2321E+00
      7.217  0.3899E-01  0.2335E+00
      7.252  0.3822E-01  0.2348E+00
      7.287  0.3907E-01  0.2362E+00
      7.321  0.4142E-01  0.2376E+00
      7.356  0.4417E-01  0.2391E+00
      7.391  0.4622E-01  0.2408E+00
      7.426  0.4748E-01  0.2424E+00
      7.460  0.4853E-01  0.2441E+00
      7.495  0.4952E-01  0.2458E+00
      7.530  0.4981E-01  0.2475E+00
      7.564  0.4895E-01  0.2492E+00
      7.599  0.4746E-01  0.2509E+00
      7.634  0.4642E-01  0.2525E+00
      7.669  0.4642E-01  0.2541E+00
      7.703  0.4703E-01  0.2557E+00
      7.738  0.4723E-01  0.2574E+00
      7.773  0.4629E-01  0.2590E+00
      7.808  0.4459E-01  0.2605E+00
      7.842  0.4337E-01  0.2621E+00
      7.877  0.4331E-01  0.2636E+00
      7.912  0.4339E-01  0.2651E+00
      7.947  0.4160E-01  0.2665E+00
      7.981  0.3697E-01  0.2678E+00
      8.016  0.3051E-01  0.2689E+00
      8.051  0.2411E-01  0.2697E+00
      8.086  0.1899E-01  0.2703E+00
      8.120  0.1518E-01  0.2709E+00
      8.155  0.1201E-01  0.2713E+00
      8.190  0.8905E-02  0.2716E+00
      8.225  0.5853E-02  0.2718E+00
      8.259  0.3269E-02  0.2719E+00
      8.294  0.1509E-02  0.2720E+00
      8.329  0.5657E-03  0.2720E+00
      8.364  0.1706E-03  0.2720E+00
      8.398  0.4110E-04  0.2720E+00
      8.433  0.7880E-05  0.2720E+00
      8.468  0.1199E-05  0.2720E+00
      8.502  0.1447E-06  0.2720E+00
      8.537  0.1381E-07  0.2720E+00
      8.572  0.1043E-08  0.2720E+00
      8.607  0.6223E-10  0.2720E+00
      8.641  0.2933E-11  0.2720E+00
      8.676  0.1091E-12  0.2720E+00
      8.711  0.3204E-14  0.2720E+00
      8.746  0.7670E-16  0.2720E+00
      8.780  0.0000E+00  0.2720E+00
      8.815  0.0000E+00  0.2720E+00
      8.850  0.0000E+00  0.2720E+00
      8.885  0.0000E+00  0.2720E+00
      8.919  0.0000E+00  0.2720E+00
      8.954  0.0000E+00  0.2720E+00
      8.989  0.0000E+00  0.2720E+00
      9.024  0.0000E+00  0.2720E+00
      9.058  0.0000E+00  0.2720E+00
      9.093  0.0000E+00  0.2720E+00
      9.128  0.0000E+00  0.2720E+00
      9.163  0.0000E+00  0.2720E+00
