   20   20  500    1
  0.1295360E+02  0.6294426E-09  0.8001585E-09  0.5143851E-09  0.5000000E-15
  1.000000000000000E-004
  CAR 
 unknown system                          
    109      8     68
 
  0.0000000E+00  0.0000000E+00  0.0000000E+00  0.1250000E+00
    1       -0.259708   1.000000
    2        2.198328   1.000000
    3        2.330175   1.000000
    4        2.791204   1.000000
    5        2.978549   1.000000
    6        3.024043   1.000000
    7        3.216773   1.000000
    8        3.286572   1.000000
    9        3.540297   1.000000
   10        3.575625   1.000000
   11        3.696774   1.000000
   12        3.801209   1.000000
   13        3.833476   1.000000
   14        3.887835   1.000000
   15        3.954335   1.000000
   16        3.994452   1.000000
   17        4.060842   1.000000
   18        4.101719   1.000000
   19        4.334575   1.000000
   20        4.366369   1.000000
   21        4.464860   1.000000
   22        4.526045   1.000000
   23        4.630346   1.000000
   24        4.643895   1.000000
   25        4.693529   1.000000
   26        4.737161   1.000000
   27        4.802339   1.000000
   28        4.905694   1.000000
   29        4.956593   1.000000
   30        5.029701   1.000000
   31        5.071407   1.000000
   32        5.120748   1.000000
   33        5.211922   1.000000
   34        5.246843   1.000000
   35        5.333238   1.000000
   36        5.383783   1.000000
   37        5.475174   1.000000
   38        5.499542   1.000000
   39        5.579838   1.000000
   40        5.653893   1.000000
   41        5.732699   1.000000
   42        5.772549   1.000000
   43        5.833086   1.000000
   44        5.853877   1.000000
   45        5.885747   1.000000
   46        6.101950   1.000000
   47        6.146078   1.000000
   48        6.154716   1.000000
   49        6.237664   1.000000
   50        6.281801   1.000000
   51        6.323849   1.000000
   52        6.401286   1.000000
   53        6.489244   0.999998
   54        6.542007   0.999946
   55        6.564139   0.999814
   56        6.638755   0.993852
   57        6.837199   0.380991
   58        6.869695   0.222898
   59        7.127752   0.000005
   60        7.194071   0.000000
   61        7.373327   0.000000
   62        7.389590   0.000000
   63        7.556321   0.000000
   64        7.568842   0.000000
   65        7.771986   0.000000
   66        7.827401   0.000000
   67        7.866873   0.000000
   68        7.997208   0.000000
 
  0.5000000E+00  0.0000000E+00  0.0000000E+00  0.1250000E+00
    1        1.459999   1.000000
    2        1.703832   1.000000
    3        2.300490   1.000000
    4        2.424846   1.000000
    5        2.910538   1.000000
    6        2.979948   1.000000
    7        3.069024   1.000000
    8        3.189668   1.000000
    9        3.320672   1.000000
   10        3.369320   1.000000
   11        3.598895   1.000000
   12        3.670119   1.000000
   13        3.677543   1.000000
   14        3.739267   1.000000
   15        3.808591   1.000000
   16        3.845049   1.000000
   17        3.952151   1.000000
   18        4.029237   1.000000
   19        4.034215   1.000000
   20        4.207294   1.000000
   21        4.277233   1.000000
   22        4.351075   1.000000
   23        4.480049   1.000000
   24        4.624751   1.000000
   25        4.679311   1.000000
   26        4.704244   1.000000
   27        4.788610   1.000000
   28        4.864460   1.000000
   29        4.915535   1.000000
   30        5.008804   1.000000
   31        5.040697   1.000000
   32        5.082065   1.000000
   33        5.162738   1.000000
   34        5.213998   1.000000
   35        5.296566   1.000000
   36        5.340381   1.000000
   37        5.401187   1.000000
   38        5.473359   1.000000
   39        5.493345   1.000000
   40        5.552022   1.000000
   41        5.601813   1.000000
   42        5.609664   1.000000
   43        5.747404   1.000000
   44        5.817890   1.000000
   45        5.897057   1.000000
   46        5.963192   1.000000
   47        6.062928   1.000000
   48        6.097985   1.000000
   49        6.247707   1.000000
   50        6.345996   1.000000
   51        6.476639   0.999999
   52        6.579768   0.999578
   53        6.760114   0.784436
   54        6.918731   0.072707
   55        6.958841   0.021528
   56        7.017219   0.002195
   57        7.230555   0.000000
   58        7.289313   0.000000
   59        7.325352   0.000000
   60        7.498445   0.000000
   61        7.578813   0.000000
   62        7.641077   0.000000
   63        7.700177   0.000000
   64        7.741196   0.000000
   65        7.869424   0.000000
   66        7.916796   0.000000
   67        7.965321   0.000000
   68        8.162549   0.000000
 
  0.0000000E+00  0.5000000E+00  0.0000000E+00  0.1250000E+00
    1        0.410591   1.000000
    2        0.595745   1.000000
    3        2.829036   1.000000
    4        2.918966   1.000000
    5        3.104268   1.000000
    6        3.212648   1.000000
    7        3.235184   1.000000
    8        3.273972   1.000000
    9        3.407586   1.000000
   10        3.457677   1.000000
   11        3.711211   1.000000
   12        3.747192   1.000000
   13        3.859412   1.000000
   14        3.969946   1.000000
   15        3.983623   1.000000
   16        4.078947   1.000000
   17        4.146569   1.000000
   18        4.196897   1.000000
   19        4.218350   1.000000
   20        4.353822   1.000000
   21        4.379905   1.000000
   22        4.447602   1.000000
   23        4.562881   1.000000
   24        4.691025   1.000000
   25        4.776316   1.000000
   26        4.790434   1.000000
   27        4.843683   1.000000
   28        4.898872   1.000000
   29        4.925874   1.000000
   30        4.991230   1.000000
   31        5.109153   1.000000
   32        5.126707   1.000000
   33        5.218271   1.000000
   34        5.283988   1.000000
   35        5.308389   1.000000
   36        5.430326   1.000000
   37        5.483789   1.000000
   38        5.604552   1.000000
   39        5.670967   1.000000
   40        5.694216   1.000000
   41        5.726579   1.000000
   42        5.769351   1.000000
   43        5.819156   1.000000
   44        5.921442   1.000000
   45        5.979853   1.000000
   46        6.037537   1.000000
   47        6.104386   1.000000
   48        6.110478   1.000000
   49        6.148030   1.000000
   50        6.196916   1.000000
   51        6.239546   1.000000
   52        6.325914   1.000000
   53        6.437930   1.000000
   54        6.543148   0.999942
   55        6.601503   0.998779
   56        6.724038   0.902763
   57        6.933088   0.048562
   58        7.096909   0.000035
   59        7.149972   0.000001
   60        7.291252   0.000000
   61        7.385709   0.000000
   62        7.428223   0.000000
   63        7.518173   0.000000
   64        7.673480   0.000000
   65        7.772713   0.000000
   66        7.890851   0.000000
   67        7.902206   0.000000
   68        7.962954   0.000000
 
  0.5000000E+00  0.5000000E+00  0.0000000E+00  0.1250000E+00
    1        1.374609   1.000000
    2        1.545551   1.000000
    3        2.650650   1.000000
    4        2.814230   1.000000
    5        2.883875   1.000000
    6        2.954150   1.000000
    7        3.131902   1.000000
    8        3.165813   1.000000
    9        3.193897   1.000000
   10        3.308913   1.000000
   11        3.385182   1.000000
   12        3.432213   1.000000
   13        3.519368   1.000000
   14        3.632527   1.000000
   15        3.728602   1.000000
   16        3.798352   1.000000
   17        3.837887   1.000000
   18        3.986419   1.000000
   19        4.031964   1.000000
   20        4.290193   1.000000
   21        4.358386   1.000000
   22        4.559578   1.000000
   23        4.621892   1.000000
   24        4.651160   1.000000
   25        4.726981   1.000000
   26        4.806259   1.000000
   27        4.856084   1.000000
   28        4.916249   1.000000
   29        4.962868   1.000000
   30        5.018051   1.000000
   31        5.092014   1.000000
   32        5.234578   1.000000
   33        5.253002   1.000000
   34        5.346287   1.000000
   35        5.379899   1.000000
   36        5.396349   1.000000
   37        5.398869   1.000000
   38        5.508328   1.000000
   39        5.563768   1.000000
   40        5.592043   1.000000
   41        5.629159   1.000000
   42        5.737121   1.000000
   43        5.796149   1.000000
   44        5.902484   1.000000
   45        5.989685   1.000000
   46        6.013487   1.000000
   47        6.067494   1.000000
   48        6.097268   1.000000
   49        6.182694   1.000000
   50        6.280187   1.000000
   51        6.327158   1.000000
   52        6.396289   1.000000
   53        6.537073   0.999960
   54        6.616970   0.997535
   55        6.759781   0.785812
   56        6.926244   0.059124
   57        6.954325   0.025039
   58        7.136042   0.000003
   59        7.241315   0.000000
   60        7.352354   0.000000
   61        7.476246   0.000000
   62        7.512540   0.000000
   63        7.627129   0.000000
   64        7.707944   0.000000
   65        7.805271   0.000000
   66        7.908051   0.000000
   67        7.946314   0.000000
   68        8.040203   0.000000
 
  0.0000000E+00  0.0000000E+00  0.5000000E+00  0.1250000E+00
    1        0.663629   1.000000
    2        0.811552   1.000000
    3        2.526293   1.000000
    4        2.715234   1.000000
    5        2.787060   1.000000
    6        2.841395   1.000000
    7        3.108184   1.000000
    8        3.259245   1.000000
    9        3.369042   1.000000
   10        3.602632   1.000000
   11        3.709510   1.000000
   12        3.782161   1.000000
   13        3.887125   1.000000
   14        3.988906   1.000000
   15        4.028131   1.000000
   16        4.044865   1.000000
   17        4.169706   1.000000
   18        4.238263   1.000000
   19        4.357199   1.000000
   20        4.426618   1.000000
   21        4.458151   1.000000
   22        4.492707   1.000000
   23        4.504840   1.000000
   24        4.579629   1.000000
   25        4.614841   1.000000
   26        4.744243   1.000000
   27        4.823378   1.000000
   28        4.857095   1.000000
   29        4.907881   1.000000
   30        4.934595   1.000000
   31        4.989784   1.000000
   32        5.047669   1.000000
   33        5.113643   1.000000
   34        5.130703   1.000000
   35        5.190418   1.000000
   36        5.331320   1.000000
   37        5.435673   1.000000
   38        5.475565   1.000000
   39        5.591983   1.000000
   40        5.650094   1.000000
   41        5.841534   1.000000
   42        5.912228   1.000000
   43        5.990592   1.000000
   44        6.035158   1.000000
   45        6.133742   1.000000
   46        6.253807   1.000000
   47        6.297288   1.000000
   48        6.424930   1.000000
   49        6.469146   1.000000
   50        6.486869   0.999998
   51        6.529926   0.999974
   52        6.571110   0.999730
   53        6.674120   0.977433
   54        6.730055   0.887314
   55        6.751860   0.816998
   56        6.818356   0.485480
   57        6.905396   0.102518
   58        7.005006   0.003725
   59        7.111347   0.000015
   60        7.170519   0.000000
   61        7.326895   0.000000
   62        7.360964   0.000000
   63        7.473636   0.000000
   64        7.510663   0.000000
   65        7.575982   0.000000
   66        7.675333   0.000000
   67        7.724182   0.000000
   68        7.802839   0.000000
 
  0.5000000E+00  0.0000000E+00  0.5000000E+00  0.1250000E+00
    1        2.059202   1.000000
    2        2.205678   1.000000
    3        2.407821   1.000000
    4        2.500240   1.000000
    5        2.714700   1.000000
    6        2.925266   1.000000
    7        2.946569   1.000000
    8        3.047091   1.000000
    9        3.093166   1.000000
   10        3.239378   1.000000
   11        3.391257   1.000000
   12        3.430722   1.000000
   13        3.558235   1.000000
   14        3.652373   1.000000
   15        3.714568   1.000000
   16        3.770994   1.000000
   17        3.892357   1.000000
   18        3.947742   1.000000
   19        3.963096   1.000000
   20        4.031820   1.000000
   21        4.082878   1.000000
   22        4.182838   1.000000
   23        4.365601   1.000000
   24        4.486245   1.000000
   25        4.509779   1.000000
   26        4.606523   1.000000
   27        4.666599   1.000000
   28        4.735292   1.000000
   29        4.933513   1.000000
   30        4.989052   1.000000
   31        5.030270   1.000000
   32        5.099665   1.000000
   33        5.146954   1.000000
   34        5.223722   1.000000
   35        5.315401   1.000000
   36        5.382916   1.000000
   37        5.413711   1.000000
   38        5.533951   1.000000
   39        5.616661   1.000000
   40        5.622906   1.000000
   41        5.672739   1.000000
   42        5.799865   1.000000
   43        5.830203   1.000000
   44        5.889241   1.000000
   45        5.951749   1.000000
   46        6.057590   1.000000
   47        6.103024   1.000000
   48        6.208051   1.000000
   49        6.376800   1.000000
   50        6.553848   0.999894
   51        6.710954   0.930895
   52        6.834088   0.397859
   53        6.908696   0.094423
   54        6.995887   0.005432
   55        7.044119   0.000621
   56        7.119669   0.000009
   57        7.158972   0.000001
   58        7.259745   0.000000
   59        7.437957   0.000000
   60        7.479878   0.000000
   61        7.520040   0.000000
   62        7.594339   0.000000
   63        7.661949   0.000000
   64        7.768180   0.000000
   65        7.794189   0.000000
   66        7.906189   0.000000
   67        8.004394   0.000000
   68        8.099992   0.000000
 
  0.0000000E+00  0.5000000E+00  0.5000000E+00  0.1250000E+00
    1        1.189814   1.000000
    2        1.249588   1.000000
    3        1.484718   1.000000
    4        1.676153   1.000000
    5        2.855374   1.000000
    6        3.163760   1.000000
    7        3.280282   1.000000
    8        3.440696   1.000000
    9        3.499428   1.000000
   10        3.597384   1.000000
   11        3.631369   1.000000
   12        3.770456   1.000000
   13        3.818894   1.000000
   14        3.925300   1.000000
   15        4.010779   1.000000
   16        4.049243   1.000000
   17        4.092179   1.000000
   18        4.252988   1.000000
   19        4.257137   1.000000
   20        4.371058   1.000000
   21        4.443754   1.000000
   22        4.487274   1.000000
   23        4.521358   1.000000
   24        4.594614   1.000000
   25        4.626181   1.000000
   26        4.700807   1.000000
   27        4.750738   1.000000
   28        4.882650   1.000000
   29        4.981972   1.000000
   30        5.084731   1.000000
   31        5.108585   1.000000
   32        5.234820   1.000000
   33        5.270424   1.000000
   34        5.279941   1.000000
   35        5.337044   1.000000
   36        5.430503   1.000000
   37        5.535848   1.000000
   38        5.627435   1.000000
   39        5.705829   1.000000
   40        5.749246   1.000000
   41        5.848712   1.000000
   42        5.892044   1.000000
   43        5.932043   1.000000
   44        6.026713   1.000000
   45        6.064798   1.000000
   46        6.179836   1.000000
   47        6.278433   1.000000
   48        6.310058   1.000000
   49        6.338919   1.000000
   50        6.450284   1.000000
   51        6.536794   0.999960
   52        6.541773   0.999947
   53        6.612060   0.998018
   54        6.667060   0.982278
   55        6.695635   0.955353
   56        6.818667   0.483724
   57        6.884721   0.164795
   58        7.085716   0.000067
   59        7.131653   0.000004
   60        7.233840   0.000000
   61        7.361198   0.000000
   62        7.425982   0.000000
   63        7.490571   0.000000
   64        7.581278   0.000000
   65        7.663818   0.000000
   66        7.734513   0.000000
   67        7.905749   0.000000
   68        7.926504   0.000000
 
  0.5000000E+00  0.5000000E+00  0.5000000E+00  0.1250000E+00
    1        2.070939   1.000000
    2        2.140508   1.000000
    3        2.230725   1.000000
    4        2.422807   1.000000
    5        2.858046   1.000000
    6        2.897966   1.000000
    7        3.048479   1.000000
    8        3.071949   1.000000
    9        3.092682   1.000000
   10        3.135035   1.000000
   11        3.303952   1.000000
   12        3.440274   1.000000
   13        3.479269   1.000000
   14        3.634248   1.000000
   15        3.755639   1.000000
   16        3.859559   1.000000
   17        3.892601   1.000000
   18        3.899137   1.000000
   19        3.960990   1.000000
   20        4.103144   1.000000
   21        4.198307   1.000000
   22        4.352253   1.000000
   23        4.412151   1.000000
   24        4.563785   1.000000
   25        4.637191   1.000000
   26        4.704302   1.000000
   27        4.848703   1.000000
   28        4.942000   1.000000
   29        4.959650   1.000000
   30        5.034321   1.000000
   31        5.075683   1.000000
   32        5.111380   1.000000
   33        5.155819   1.000000
   34        5.195090   1.000000
   35        5.221978   1.000000
   36        5.358258   1.000000
   37        5.453969   1.000000
   38        5.579907   1.000000
   39        5.602752   1.000000
   40        5.657257   1.000000
   41        5.721626   1.000000
   42        5.783769   1.000000
   43        5.827346   1.000000
   44        5.907104   1.000000
   45        5.954259   1.000000
   46        6.027244   1.000000
   47        6.075656   1.000000
   48        6.207667   1.000000
   49        6.278332   1.000000
   50        6.337194   1.000000
   51        6.414782   1.000000
   52        6.571096   0.999730
   53        6.638296   0.993964
   54        6.838692   0.372968
   55        6.932710   0.049103
   56        7.016975   0.002218
   57        7.090105   0.000052
   58        7.213788   0.000000
   59        7.333797   0.000000
   60        7.346253   0.000000
   61        7.417138   0.000000
   62        7.522218   0.000000
   63        7.631155   0.000000
   64        7.718926   0.000000
   65        7.758908   0.000000
   66        7.933999   0.000000
   67        8.064284   0.000000
   68        8.147850   0.000000
