       N       E                     dE             d eps       ncg     rms          rms(c)
DAV:   1     0.712099520300E+03    0.71210E+03   -0.23581E+04  1088   0.113E+03
DAV:   2    -0.155088763191E+02   -0.72761E+03   -0.70007E+03  1088   0.336E+02
DAV:   3    -0.149164144728E+03   -0.13366E+03   -0.12628E+03  1876   0.157E+02
DAV:   4    -0.164082764288E+03   -0.14919E+02   -0.14144E+02  1792   0.700E+01
DAV:   5    -0.165009404987E+03   -0.92664E+00   -0.88250E+00  1824   0.131E+01    0.571E+01
DAV:   6    -0.201841141211E+03   -0.36832E+02   -0.63734E+02  2128   0.210E+02    0.722E+01
DAV:   7    -0.156770883251E+03    0.45070E+02   -0.31774E+02  2064   0.134E+02    0.397E+01
DAV:   8    -0.156573964045E+03    0.19692E+00   -0.18266E+02  1952   0.119E+02    0.281E+01
DAV:   9    -0.156953796412E+03   -0.37983E+00   -0.95017E+01  2104   0.900E+01    0.307E+01
DAV:  10    -0.148817713798E+03    0.81361E+01   -0.51624E+01  2160   0.588E+01    0.872E+00
DAV:  11    -0.148773895051E+03    0.43819E-01   -0.72326E+00  1784   0.214E+01    0.688E+00
DAV:  12    -0.148663193830E+03    0.11070E+00   -0.32774E+00  2000   0.154E+01    0.557E+00
DAV:  13    -0.148679462491E+03   -0.16269E-01   -0.26724E+00  2144   0.144E+01    0.608E+00
DAV:  14    -0.148619725824E+03    0.59737E-01   -0.19978E+00  2144   0.133E+01    0.502E+00
DAV:  15    -0.148471415442E+03    0.14831E+00   -0.10006E+00  2160   0.865E+00    0.228E+00
DAV:  16    -0.148460317001E+03    0.11098E-01   -0.23988E-01  1968   0.405E+00    0.142E+00
DAV:  17    -0.148456473415E+03    0.38436E-02   -0.11978E-01  2048   0.306E+00    0.947E-01
DAV:  18    -0.148456255073E+03    0.21834E-03   -0.78556E-02  1904   0.221E+00    0.785E-01
DAV:  19    -0.148453540974E+03    0.27141E-02   -0.50441E-02  2080   0.197E+00    0.670E-01
DAV:  20    -0.148452507435E+03    0.10335E-02   -0.11773E-02  1944   0.936E-01    0.553E-01
DAV:  21    -0.148451153946E+03    0.13535E-02   -0.67888E-03  1848   0.662E-01    0.215E-01
DAV:  22    -0.148451124553E+03    0.29392E-04   -0.22146E-03  1872   0.383E-01    0.159E-01
DAV:  23    -0.148451033930E+03    0.90623E-04   -0.81405E-04  1888   0.246E-01    0.913E-02
DAV:  24    -0.148451028314E+03    0.56165E-05   -0.15449E-04  1784   0.103E-01    0.858E-02
DAV:  25    -0.148451022596E+03    0.57176E-05   -0.13501E-05   800   0.387E-02
   1 F= -.14845102E+03 E0= -.14839699E+03  d E =-.148451E+03
       N       E                     dE             d eps       ncg     rms          rms(c)
DAV:   1    -0.211346674157E+03   -0.62896E+02   -0.22911E+03  1128   0.364E+02    0.964E+01
DAV:   2    -0.393203146793E+03   -0.18186E+03   -0.32078E+03  1748   0.225E+02    0.116E+02
DAV:   3    -0.157872848666E+03    0.23533E+03   -0.14559E+03  1968   0.230E+02    0.632E+01
DAV:   4    -0.188060134589E+03   -0.30187E+02   -0.12147E+03  2144   0.203E+02    0.549E+01
DAV:   5    -0.163539175734E+03    0.24521E+02   -0.29355E+02  1904   0.963E+01    0.383E+01
DAV:   6    -0.155349740553E+03    0.81894E+01   -0.66494E+01  2040   0.457E+01    0.263E+01
DAV:   7    -0.153987455168E+03    0.13623E+01   -0.35788E+01  2176   0.327E+01    0.255E+01
DAV:   8    -0.152063445143E+03    0.19240E+01   -0.14839E+01  1936   0.210E+01    0.207E+01
DAV:   9    -0.151570518331E+03    0.49293E+00   -0.29750E+00  2168   0.986E+00    0.182E+01
DAV:  10    -0.151396229634E+03    0.17429E+00   -0.28251E+00  2160   0.980E+00    0.173E+01
DAV:  11    -0.153778052910E+03   -0.23818E+01   -0.21944E+01  2040   0.274E+01    0.231E+01
DAV:  12    -0.156141842130E+03   -0.23638E+01   -0.22167E+01  2152   0.260E+01    0.318E+01
DAV:  13    -0.152439810751E+03    0.37020E+01   -0.27630E+01  2080   0.314E+01    0.191E+01
DAV:  14    -0.150616554140E+03    0.18233E+01   -0.18260E+01  2160   0.232E+01    0.590E+00
DAV:  15    -0.150541349196E+03    0.75205E-01   -0.19569E+00  1856   0.782E+00    0.418E+00
DAV:  16    -0.150440343842E+03    0.10101E+00   -0.65528E-01  1936   0.476E+00    0.206E+00
DAV:  17    -0.150430130792E+03    0.10213E-01   -0.20650E-01  1904   0.288E+00    0.167E+00
DAV:  18    -0.150430159067E+03   -0.28275E-04   -0.63061E-02  2112   0.147E+00    0.155E+00
DAV:  19    -0.150434903261E+03   -0.47442E-02   -0.57586E-02  2160   0.143E+00    0.194E+00
DAV:  20    -0.150419647591E+03    0.15256E-01   -0.65726E-02  2104   0.148E+00    0.112E+00
DAV:  21    -0.150412438083E+03    0.72095E-02   -0.47521E-02  1824   0.115E+00    0.526E-01
DAV:  22    -0.150411882918E+03    0.55517E-03   -0.93188E-03  2024   0.604E-01    0.454E-01
DAV:  23    -0.150410827489E+03    0.10554E-02   -0.37245E-03  2136   0.380E-01    0.161E-01
DAV:  24    -0.150411177292E+03   -0.34980E-03   -0.20594E-03  2112   0.278E-01    0.285E-01
DAV:  25    -0.150410967322E+03    0.20997E-03   -0.10765E-03  1960   0.203E-01    0.227E-01
DAV:  26    -0.150410917467E+03    0.49855E-04   -0.53251E-04  1896   0.140E-01    0.218E-01
DAV:  27    -0.150410692321E+03    0.22515E-03   -0.84489E-04  2152   0.179E-01    0.588E-02
DAV:  28    -0.150410686557E+03    0.57645E-05   -0.15679E-04  1792   0.678E-02    0.209E-02
DAV:  29    -0.150410687769E+03   -0.12123E-05   -0.16473E-05   864   0.291E-02
   2 F= -.15041069E+03 E0= -.15032199E+03  d E =-.195967E+01
       N       E                     dE             d eps       ncg     rms          rms(c)
DAV:   1    -0.174511923694E+03   -0.24101E+02   -0.43747E+02  1088   0.148E+02    0.531E+01
DAV:   2    -0.319871703942E+03   -0.14536E+03   -0.11632E+03  1992   0.292E+02    0.220E+02
DAV:   3    -0.256702636498E+03    0.63169E+02   -0.49147E+02  1836   0.108E+02    0.803E+01
DAV:   4    -0.162901214209E+03    0.93801E+02   -0.29993E+02  1912   0.957E+01    0.350E+01
DAV:   5    -0.155952358155E+03    0.69489E+01   -0.66757E+01  2136   0.578E+01    0.192E+01
DAV:   6    -0.159721915779E+03   -0.37696E+01   -0.63257E+01  2080   0.544E+01    0.313E+01
DAV:   7    -0.155576977514E+03    0.41449E+01   -0.25603E+01  2072   0.327E+01    0.163E+01
DAV:   8    -0.154615700820E+03    0.96128E+00   -0.12005E+01  2152   0.225E+01    0.829E+00
DAV:   9    -0.155373974437E+03   -0.75827E+00   -0.57958E+00  2120   0.160E+01    0.135E+01
DAV:  10    -0.155108068514E+03    0.26591E+00   -0.15874E+00  1824   0.819E+00    0.119E+01
DAV:  11    -0.154505093806E+03    0.60297E+00   -0.13985E+00  2176   0.866E+00    0.619E+00
DAV:  12    -0.154495200237E+03    0.98936E-02   -0.37139E-01  2072   0.400E+00    0.534E+00
DAV:  13    -0.154449429544E+03    0.45771E-01   -0.24653E-01  2064   0.372E+00    0.405E+00
DAV:  14    -0.154435655084E+03    0.13774E-01   -0.82714E-02  2024   0.212E+00    0.346E+00
DAV:  15    -0.154434503704E+03    0.11514E-02   -0.22737E-02  1808   0.102E+00    0.299E+00
DAV:  16    -0.154433392505E+03    0.11112E-02   -0.97713E-03  1880   0.736E-01    0.264E+00
DAV:  17    -0.154432653016E+03    0.73949E-03   -0.88715E-03  1800   0.665E-01    0.236E+00
DAV:  18    -0.154432389814E+03    0.26320E-03   -0.65300E-03  2152   0.598E-01    0.201E+00
DAV:  19    -0.154431123179E+03    0.12666E-02   -0.49393E-03  2152   0.471E-01    0.174E+00
DAV:  20    -0.154430435540E+03    0.68764E-03   -0.15007E-03  2056   0.247E-01    0.134E+00
DAV:  21    -0.154430306832E+03    0.12871E-03   -0.69085E-04  2176   0.180E-01    0.105E+00
DAV:  22    -0.154429920419E+03    0.38641E-03   -0.13791E-03  2160   0.251E-01    0.771E-01
DAV:  23    -0.154429948239E+03   -0.27820E-04   -0.14871E-03  2144   0.246E-01    0.652E-01
DAV:  24    -0.154429744271E+03    0.20397E-03   -0.59595E-04  2160   0.166E-01    0.337E-01
DAV:  25    -0.154429696470E+03    0.47802E-04   -0.27817E-04  2168   0.103E-01    0.176E-01
DAV:  26    -0.154429699394E+03   -0.29244E-05   -0.59634E-05  1400   0.527E-02
   3 F= -.15442970E+03 E0= -.15436356E+03  d E =-.597868E+01
       N       E                     dE             d eps       ncg     rms          rms(c)
DAV:   1    -0.154453071858E+03   -0.23375E-01   -0.44683E-01  1104   0.514E+00    0.165E+00
DAV:   2    -0.155023866969E+03   -0.57080E+00   -0.31806E+00  2152   0.138E+01    0.101E+01
DAV:   3    -0.154428869350E+03    0.59500E+00   -0.28016E+00  2168   0.131E+01    0.110E+00
DAV:   4    -0.154439652266E+03   -0.10783E-01   -0.24465E-01  2032   0.336E+00    0.801E-01
DAV:   5    -0.154438246582E+03    0.14057E-02   -0.41796E-02  1880   0.158E+00    0.604E-01
DAV:   6    -0.154435737334E+03    0.25092E-02   -0.18856E-02  2120   0.934E-01    0.298E-01
DAV:   7    -0.154435566067E+03    0.17127E-03   -0.37624E-03  2144   0.435E-01    0.214E-01
DAV:   8    -0.154435371743E+03    0.19432E-03   -0.19509E-03  2112   0.326E-01    0.123E-01
DAV:   9    -0.154435302144E+03    0.69599E-04   -0.66286E-04  2144   0.197E-01    0.494E-02
DAV:  10    -0.154435318646E+03   -0.16503E-04   -0.42664E-04  1768   0.139E-01    0.605E-02
DAV:  11    -0.154435281569E+03    0.37078E-04   -0.23581E-04  1728   0.109E-01    0.148E-02
DAV:  12    -0.154435286291E+03   -0.47218E-05   -0.60801E-05  1280   0.592E-02
   4 F= -.15443529E+03 E0= -.15436977E+03  d E =-.598426E+01
       N       E                     dE             d eps       ncg     rms          rms(c)
DAV:   1    -0.155984811561E+03   -0.15495E+01   -0.74729E+01  1088   0.323E+01    0.606E+00
DAV:   2    -0.160016600556E+03   -0.40318E+01   -0.37918E+01  2128   0.425E+01    0.223E+01
DAV:   3    -0.155842444291E+03    0.41742E+01   -0.25352E+01  2168   0.369E+01    0.604E+00
DAV:   4    -0.155782483577E+03    0.59961E-01   -0.30011E+00  1896   0.143E+01    0.314E+00
DAV:   5    -0.155869698927E+03   -0.87215E-01   -0.22435E+00  1960   0.986E+00    0.508E+00
DAV:   6    -0.155700407463E+03    0.16929E+00   -0.14921E+00  1976   0.757E+00    0.160E+00
DAV:   7    -0.155697799489E+03    0.26080E-02   -0.43631E-01  1872   0.489E+00    0.158E+00
DAV:   8    -0.155698007525E+03   -0.20804E-03   -0.21276E-01  2128   0.347E+00    0.190E+00
DAV:   9    -0.155678178156E+03    0.19829E-01   -0.10276E-01  2144   0.252E+00    0.584E-01
DAV:  10    -0.155677359178E+03    0.81898E-03   -0.24506E-02  2152   0.116E+00    0.335E-01
DAV:  11    -0.155677499016E+03   -0.13984E-03   -0.14435E-02  1864   0.837E-01    0.306E-01
DAV:  12    -0.155676637875E+03    0.86114E-03   -0.65671E-03  1840   0.587E-01    0.116E-01
DAV:  13    -0.155676716615E+03   -0.78741E-04   -0.17046E-03  1920   0.305E-01    0.115E-01
DAV:  14    -0.155676609538E+03    0.10708E-03   -0.80705E-04  1968   0.214E-01    0.481E-02
DAV:  15    -0.155676600750E+03    0.87875E-05   -0.21852E-04  2088   0.104E-01    0.343E-02
DAV:  16    -0.155676591165E+03    0.95854E-05   -0.43956E-05  1080   0.634E-02
   5 F= -.15567659E+03 E0= -.15560873E+03  d E =-.124130E+01
       N       E                     dE             d eps       ncg     rms          rms(c)
DAV:   1    -0.159223245841E+03   -0.35466E+01   -0.66735E+02  1088   0.968E+01    0.170E+01
DAV:   2    -0.182058862159E+03   -0.22836E+02   -0.23629E+02  2040   0.112E+02    0.498E+01
DAV:   3    -0.158765422683E+03    0.23293E+02   -0.14738E+02  2052   0.924E+01    0.143E+01
DAV:   4    -0.158798872928E+03   -0.33450E-01   -0.29104E+01  1880   0.347E+01    0.125E+01
DAV:   5    -0.159154424283E+03   -0.35555E+00   -0.16486E+01  2048   0.297E+01    0.132E+01
DAV:   6    -0.157918983956E+03    0.12354E+01   -0.11534E+01  2168   0.263E+01    0.692E+00
DAV:   7    -0.157849759011E+03    0.69225E-01   -0.55388E+00  1864   0.155E+01    0.532E+00
DAV:   8    -0.157712016966E+03    0.13774E+00   -0.25231E+00  1952   0.104E+01    0.356E+00
DAV:   9    -0.157606636885E+03    0.10538E+00   -0.74069E-01  1800   0.625E+00    0.136E+00
DAV:  10    -0.157615849418E+03   -0.92125E-02   -0.25563E-01  2080   0.362E+00    0.153E+00
DAV:  11    -0.157606181643E+03    0.96678E-02   -0.13473E-01  2136   0.292E+00    0.114E+00
DAV:  12    -0.157602709615E+03    0.34720E-02   -0.74970E-02  2112   0.213E+00    0.810E-01
DAV:  13    -0.157602405796E+03    0.30382E-03   -0.40039E-02  2144   0.149E+00    0.580E-01
DAV:  14    -0.157599666108E+03    0.27397E-02   -0.21609E-02  1944   0.966E-01    0.194E-01
DAV:  15    -0.157599722890E+03   -0.56782E-04   -0.49117E-03  1768   0.482E-01    0.196E-01
DAV:  16    -0.157599641536E+03    0.81354E-04   -0.23947E-03  1920   0.324E-01    0.137E-01
DAV:  17    -0.157599489032E+03    0.15250E-03   -0.10281E-03  1976   0.224E-01    0.481E-02
DAV:  18    -0.157599496442E+03   -0.74098E-05   -0.29419E-04  1888   0.108E-01    0.488E-02
DAV:  19    -0.157599472067E+03    0.24375E-04   -0.13513E-04  1736   0.834E-02    0.116E-02
DAV:  20    -0.157599472429E+03   -0.36230E-06   -0.15803E-05   776   0.363E-02
   6 F= -.15759947E+03 E0= -.15753009E+03  d E =-.316419E+01
       N       E                     dE             d eps       ncg     rms          rms(c)
DAV:   1    -0.157732310793E+03   -0.13284E+00   -0.24605E+01  1104   0.199E+01    0.396E+00
DAV:   2    -0.159361584323E+03   -0.16293E+01   -0.12481E+01  2080   0.277E+01    0.154E+01
DAV:   3    -0.157646266175E+03    0.17153E+01   -0.87320E+00  2120   0.250E+01    0.277E+00
DAV:   4    -0.157694470233E+03   -0.48204E-01   -0.14496E+00  1928   0.867E+00    0.218E+00
DAV:   5    -0.157680882965E+03    0.13587E-01   -0.62126E-01  1864   0.567E+00    0.206E+00
DAV:   6    -0.157645488560E+03    0.35394E-01   -0.33506E-01  1944   0.381E+00    0.941E-01
DAV:   7    -0.157643168579E+03    0.23200E-02   -0.95087E-02  1960   0.228E+00    0.693E-01
DAV:   8    -0.157641488984E+03    0.16796E-02   -0.44631E-02  1936   0.138E+00    0.549E-01
DAV:   9    -0.157639507927E+03    0.19811E-02   -0.17870E-02  2120   0.103E+00    0.292E-01
DAV:  10    -0.157639630501E+03   -0.12257E-03   -0.64727E-03  2008   0.629E-01    0.307E-01
DAV:  11    -0.157639114484E+03    0.51602E-03   -0.39902E-03  2048   0.490E-01    0.110E-01
DAV:  12    -0.157639065998E+03    0.48486E-04   -0.12622E-03  1824   0.234E-01    0.671E-02
DAV:  13    -0.157639085703E+03   -0.19705E-04   -0.69880E-04  1752   0.171E-01    0.748E-02
DAV:  14    -0.157639049043E+03    0.36659E-04   -0.40716E-04  2000   0.137E-01    0.401E-02
DAV:  15    -0.157639037498E+03    0.11546E-04   -0.10515E-04  1616   0.710E-02    0.203E-02
DAV:  16    -0.157639034628E+03    0.28693E-05   -0.11391E-05   664   0.338E-02
   7 F= -.15763903E+03 E0= -.15757248E+03  d E =-.320375E+01
       N       E                     dE             d eps       ncg     rms          rms(c)
DAV:   1    -0.158776943361E+03   -0.11379E+01   -0.15591E+02  1248   0.551E+01    0.970E+00
DAV:   2    -0.171179529983E+03   -0.12403E+02   -0.82925E+01  2072   0.630E+01    0.473E+01
DAV:   3    -0.158275395855E+03    0.12904E+02   -0.64889E+01  2120   0.512E+01    0.829E+00
DAV:   4    -0.158465535312E+03   -0.19014E+00   -0.11071E+01  1976   0.208E+01    0.582E+00
DAV:   5    -0.158446999937E+03    0.18535E-01   -0.47359E+00  2080   0.156E+01    0.545E+00
DAV:   6    -0.158280678645E+03    0.16632E+00   -0.29826E+00  1976   0.118E+01    0.410E+00
DAV:   7    -0.158199249864E+03    0.81429E-01   -0.12532E+00  2096   0.727E+00    0.252E+00
DAV:   8    -0.158176973196E+03    0.22277E-01   -0.48325E-01  1944   0.474E+00    0.197E+00
DAV:   9    -0.158147126396E+03    0.29847E-01   -0.25908E-01  2008   0.305E+00    0.729E-01
DAV:  10    -0.158148363327E+03   -0.12369E-02   -0.41019E-02  1920   0.143E+00    0.661E-01
DAV:  11    -0.158146124672E+03    0.22387E-02   -0.22158E-02  2128   0.114E+00    0.426E-01
DAV:  12    -0.158146396509E+03   -0.27184E-03   -0.12526E-02  2128   0.818E-01    0.447E-01
DAV:  13    -0.158145944689E+03    0.45182E-03   -0.11568E-02  2096   0.762E-01    0.305E-01
DAV:  14    -0.158145305087E+03    0.63960E-03   -0.56188E-03  1808   0.500E-01    0.946E-02
DAV:  15    -0.158145356787E+03   -0.51700E-04   -0.14505E-03  1952   0.250E-01    0.115E-01
DAV:  16    -0.158145274651E+03    0.82136E-04   -0.63910E-04  2136   0.182E-01    0.565E-02
DAV:  17    -0.158145257361E+03    0.17291E-04   -0.17594E-04  1936   0.905E-02    0.263E-02
DAV:  18    -0.158145259109E+03   -0.17487E-05   -0.25786E-05   936   0.453E-02
   8 F= -.15814526E+03 E0= -.15808453E+03  d E =-.506224E+00
       N       E                     dE             d eps       ncg     rms          rms(c)
DAV:   1    -0.158175924220E+03   -0.30667E-01   -0.37976E+00  1120   0.772E+00    0.140E+00
DAV:   2    -0.158410467975E+03   -0.23454E+00   -0.15566E+00  2120   0.903E+00    0.630E+00
DAV:   3    -0.158167151059E+03    0.24332E+00   -0.11753E+00  2144   0.826E+00    0.114E+00
DAV:   4    -0.158168963570E+03   -0.18125E-02   -0.14658E-01  1848   0.280E+00    0.731E-01
DAV:   5    -0.158171031401E+03   -0.20678E-02   -0.10173E-01  2064   0.227E+00    0.876E-01
DAV:   6    -0.158163756317E+03    0.72751E-02   -0.70885E-02  1792   0.164E+00    0.379E-01
DAV:   7    -0.158163554754E+03    0.20156E-03   -0.19700E-02  2152   0.867E-01    0.326E-01
DAV:   8    -0.158163037977E+03    0.51678E-03   -0.75856E-03  2104   0.640E-01    0.232E-01
DAV:   9    -0.158162733035E+03    0.30494E-03   -0.23379E-03  2152   0.357E-01    0.895E-02
DAV:  10    -0.158162782236E+03   -0.49201E-04   -0.10231E-03  2032   0.228E-01    0.115E-01
DAV:  11    -0.158162712779E+03    0.69458E-04   -0.69536E-04  2080   0.188E-01    0.598E-02
DAV:  12    -0.158162692240E+03    0.20539E-04   -0.20482E-04  1904   0.980E-02    0.248E-02
DAV:  13    -0.158162690607E+03    0.16329E-05   -0.79671E-05  1488   0.602E-02
   9 F= -.15816269E+03 E0= -.15810201E+03  d E =-.523656E+00
       N       E                     dE             d eps       ncg     rms          rms(c)
DAV:   1    -0.159896862924E+03   -0.17342E+01   -0.70640E+01  1192   0.436E+01    0.144E+01
DAV:   2    -0.185853661321E+03   -0.25957E+02   -0.18807E+02  2096   0.121E+02    0.522E+01
DAV:   3    -0.158636720204E+03    0.27217E+02   -0.10839E+02  1976   0.686E+01    0.128E+01
DAV:   4    -0.158995672234E+03   -0.35895E+00   -0.20066E+01  2128   0.283E+01    0.801E+00
DAV:   5    -0.158639262271E+03    0.35641E+00   -0.58555E+00  2040   0.158E+01    0.432E+00
DAV:   6    -0.158644857539E+03   -0.55953E-02   -0.19445E+00  1936   0.890E+00    0.390E+00
DAV:   7    -0.158579929429E+03    0.64928E-01   -0.12655E+00  2128   0.725E+00    0.300E+00
DAV:   8    -0.158570923069E+03    0.90064E-02   -0.49594E-01  1936   0.468E+00    0.295E+00
DAV:   9    -0.158551906637E+03    0.19016E-01   -0.18995E-01  2032   0.308E+00    0.244E+00
DAV:  10    -0.158531647963E+03    0.20259E-01   -0.12522E-01  2160   0.259E+00    0.154E+00
DAV:  11    -0.158523342954E+03    0.83050E-02   -0.82858E-02  2120   0.205E+00    0.103E+00
DAV:  12    -0.158521749861E+03    0.15931E-02   -0.33040E-02  2104   0.127E+00    0.856E-01
DAV:  13    -0.158517812335E+03    0.39375E-02   -0.16749E-02  2112   0.872E-01    0.331E-01
DAV:  14    -0.158517843511E+03   -0.31176E-04   -0.26096E-03  1872   0.345E-01    0.271E-01
DAV:  15    -0.158517650471E+03    0.19304E-03   -0.14039E-03  2080   0.272E-01    0.173E-01
DAV:  16    -0.158517573048E+03    0.77423E-04   -0.58327E-04  2120   0.173E-01    0.123E-01
DAV:  17    -0.158517545436E+03    0.27612E-04   -0.23008E-04  2072   0.112E-01    0.101E-01
DAV:  18    -0.158517502501E+03    0.42935E-04   -0.11930E-04  1920   0.843E-02    0.507E-02
DAV:  19    -0.158517495080E+03    0.74211E-05   -0.42432E-05  1152   0.552E-02
  10 F= -.15851750E+03 E0= -.15846125E+03  d E =-.354804E+00
       N       E                     dE             d eps       ncg     rms          rms(c)
DAV:   1    -0.158618744702E+03   -0.10124E+00   -0.44121E+00  1176   0.114E+01    0.349E+00
DAV:   2    -0.160872415176E+03   -0.22537E+01   -0.13783E+01  2128   0.308E+01    0.184E+01
DAV:   3    -0.158507060027E+03    0.23654E+01   -0.10582E+01  2160   0.279E+01    0.260E+00
DAV:   4    -0.158546370369E+03   -0.39310E-01   -0.11764E+00  1952   0.736E+00    0.115E+00
DAV:   5    -0.158557735506E+03   -0.11365E-01   -0.23302E-01  1792   0.326E+00    0.144E+00
DAV:   6    -0.158541291619E+03    0.16444E-01   -0.13880E-01  2088   0.242E+00    0.656E-01
DAV:   7    -0.158540883962E+03    0.40766E-03   -0.44562E-02  1840   0.150E+00    0.612E-01
DAV:   8    -0.158538615448E+03    0.22685E-02   -0.26680E-02  2064   0.113E+00    0.318E-01
DAV:   9    -0.158538117834E+03    0.49761E-03   -0.82901E-03  1744   0.587E-01    0.215E-01
DAV:  10    -0.158538053924E+03    0.63910E-04   -0.28340E-03  2120   0.404E-01    0.178E-01
DAV:  11    -0.158537883069E+03    0.17086E-03   -0.18207E-03  2168   0.337E-01    0.106E-01
DAV:  12    -0.158537844023E+03    0.39046E-04   -0.58848E-04  2112   0.200E-01    0.594E-02
DAV:  13    -0.158537832856E+03    0.11167E-04   -0.18786E-04  1848   0.102E-01    0.377E-02
DAV:  14    -0.158537826918E+03    0.59378E-05   -0.77650E-05  1272   0.574E-02
  11 F= -.15853783E+03 E0= -.15848214E+03  d E =-.375136E+00
       N       E                     dE             d eps       ncg     rms          rms(c)
DAV:   1    -0.159064683267E+03   -0.52685E+00   -0.74218E+01  1088   0.312E+01    0.431E+00
DAV:   2    -0.161807681568E+03   -0.27430E+01   -0.24272E+01  1992   0.336E+01    0.182E+01
DAV:   3    -0.159082922835E+03    0.27248E+01   -0.16155E+01  2140   0.284E+01    0.513E+00
DAV:   4    -0.159002201123E+03    0.80722E-01   -0.19152E+00  1904   0.103E+01    0.220E+00
DAV:   5    -0.159000040154E+03    0.21610E-02   -0.73481E-01  1808   0.574E+00    0.204E+00
DAV:   6    -0.158993636132E+03    0.64040E-02   -0.66123E-01  2024   0.520E+00    0.231E+00
DAV:   7    -0.158953442403E+03    0.40194E-01   -0.33447E-01  1984   0.398E+00    0.935E-01
DAV:   8    -0.158955019303E+03   -0.15769E-02   -0.95267E-02  2032   0.204E+00    0.915E-01
DAV:   9    -0.158947784706E+03    0.72346E-02   -0.43419E-02  2096   0.150E+00    0.214E-01
DAV:  10    -0.158948393926E+03   -0.60922E-03   -0.97085E-03  2120   0.681E-01    0.297E-01
DAV:  11    -0.158947840075E+03    0.55385E-03   -0.53234E-03  2128   0.566E-01    0.141E-01
DAV:  12    -0.158947850275E+03   -0.10200E-04   -0.23043E-03  2096   0.370E-01    0.155E-01
DAV:  13    -0.158947766735E+03    0.83540E-04   -0.11406E-03  2096   0.288E-01    0.906E-02
DAV:  14    -0.158947721706E+03    0.45029E-04   -0.45189E-04  1976   0.158E-01    0.423E-02
DAV:  15    -0.158947711165E+03    0.10541E-04   -0.15449E-04  1936   0.871E-02    0.208E-02
DAV:  16    -0.158947721234E+03   -0.10069E-04   -0.86083E-05  1296   0.575E-02    0.356E-02
DAV:  17    -0.158947709013E+03    0.12221E-04   -0.41078E-05  1016   0.538E-02    0.715E-03
DAV:  18    -0.158947709753E+03   -0.74029E-06   -0.14158E-05   744   0.201E-02
  12 F= -.15894771E+03 E0= -.15889321E+03  d E =-.409883E+00
       N       E                     dE             d eps       ncg     rms          rms(c)
DAV:   1    -0.159732437339E+03   -0.78473E+00   -0.25767E+02  1088   0.599E+01    0.821E+00
DAV:   2    -0.169270651524E+03   -0.95382E+01   -0.89164E+01  1984   0.634E+01    0.324E+01
DAV:   3    -0.159478625491E+03    0.97920E+01   -0.57914E+01  2104   0.502E+01    0.750E+00
DAV:   4    -0.159516896827E+03   -0.38271E-01   -0.64529E+00  1904   0.180E+01    0.439E+00
DAV:   5    -0.159481533143E+03    0.35364E-01   -0.27594E+00  1904   0.114E+01    0.397E+00
DAV:   6    -0.159343659159E+03    0.13787E+00   -0.17822E+00  1840   0.872E+00    0.245E+00
DAV:   7    -0.159333819110E+03    0.98400E-02   -0.88801E-01  2104   0.664E+00    0.225E+00
DAV:   8    -0.159321334573E+03    0.12485E-01   -0.47759E-01  2072   0.470E+00    0.217E+00
DAV:   9    -0.159289772235E+03    0.31562E-01   -0.20226E-01  2168   0.340E+00    0.659E-01
DAV:  10    -0.159289191266E+03    0.58097E-03   -0.45636E-02  1896   0.157E+00    0.529E-01
DAV:  11    -0.159289220927E+03   -0.29662E-04   -0.20071E-02  2056   0.120E+00    0.543E-01
DAV:  12    -0.159287850366E+03    0.13706E-02   -0.14718E-02  2024   0.967E-01    0.267E-01
DAV:  13    -0.159287630040E+03    0.22033E-03   -0.86218E-03  2128   0.701E-01    0.196E-01
DAV:  14    -0.159287367306E+03    0.26273E-03   -0.25268E-03  1992   0.352E-01    0.767E-02
DAV:  15    -0.159287324345E+03    0.42962E-04   -0.52014E-04  2040   0.147E-01    0.299E-02
DAV:  16    -0.159287341074E+03   -0.16730E-04   -0.20369E-04  2048   0.102E-01    0.443E-02
DAV:  17    -0.159287322786E+03    0.18289E-04   -0.13195E-04  1864   0.862E-02    0.148E-02
DAV:  18    -0.159287320354E+03    0.24312E-05   -0.15457E-05   720   0.390E-02
  13 F= -.15928732E+03 E0= -.15923117E+03  d E =-.749493E+00
       N       E                     dE             d eps       ncg     rms          rms(c)
DAV:   1    -0.159649020469E+03   -0.36170E+00   -0.64305E+01  1088   0.283E+01    0.276E+00
DAV:   2    -0.160937537333E+03   -0.12885E+01   -0.11535E+01  1960   0.216E+01    0.111E+01
DAV:   3    -0.159707029674E+03    0.12305E+01   -0.64472E+00  2128   0.157E+01    0.240E+00
DAV:   4    -0.159713536318E+03   -0.65066E-02   -0.59168E-01  2096   0.588E+00    0.172E+00
DAV:   5    -0.159696678762E+03    0.16858E-01   -0.20297E-01  2136   0.390E+00    0.102E+00
DAV:   6    -0.159690525200E+03    0.61536E-02   -0.19089E-01  1864   0.305E+00    0.925E-01
DAV:   7    -0.159688616640E+03    0.19086E-02   -0.11339E-01  1952   0.219E+00    0.892E-01
DAV:   8    -0.159684557556E+03    0.40591E-02   -0.55722E-02  2144   0.165E+00    0.522E-01
DAV:   9    -0.159682243657E+03    0.23139E-02   -0.16918E-02  1856   0.879E-01    0.137E-01
DAV:  10    -0.159682671548E+03   -0.42789E-03   -0.55212E-03  1944   0.489E-01    0.240E-01
DAV:  11    -0.159682263544E+03    0.40800E-03   -0.34975E-03  2080   0.412E-01    0.112E-01
DAV:  12    -0.159682184546E+03    0.78997E-04   -0.83709E-04  2032   0.207E-01    0.475E-02
DAV:  13    -0.159682179781E+03    0.47650E-05   -0.27196E-04  1776   0.111E-01    0.359E-02
DAV:  14    -0.159682173337E+03    0.64445E-05   -0.11417E-04  1648   0.782E-02    0.268E-02
DAV:  15    -0.159682169543E+03    0.37938E-05   -0.38329E-05  1024   0.638E-02
  14 F= -.15968217E+03 E0= -.15962297E+03  d E =-.394849E+00
       N       E                     dE             d eps       ncg     rms          rms(c)
DAV:   1    -0.160297376258E+03   -0.61520E+00   -0.60909E+02  1088   0.971E+01    0.982E+00
DAV:   2    -0.174639835003E+03   -0.14342E+02   -0.15534E+02  1856   0.853E+01    0.306E+01
DAV:   3    -0.161655278285E+03    0.12985E+02   -0.58621E+01  1932   0.515E+01    0.109E+01
DAV:   4    -0.160902028471E+03    0.75325E+00   -0.73188E+00  1840   0.189E+01    0.436E+00
DAV:   5    -0.160931996598E+03   -0.29968E-01   -0.22308E+00  2080   0.108E+01    0.432E+00
DAV:   6    -0.160805275335E+03    0.12672E+00   -0.16007E+00  2168   0.108E+01    0.279E+00
DAV:   7    -0.160866744826E+03   -0.61469E-01   -0.15031E+00  2144   0.921E+00    0.428E+00
DAV:   8    -0.160767501096E+03    0.99244E-01   -0.99410E-01  2160   0.761E+00    0.223E+00
DAV:   9    -0.160750473580E+03    0.17028E-01   -0.39359E-01  1832   0.434E+00    0.155E+00
DAV:  10    -0.160744484530E+03    0.59890E-02   -0.23669E-01  2112   0.313E+00    0.128E+00
DAV:  11    -0.160730829115E+03    0.13655E-01   -0.10405E-01  2064   0.210E+00    0.415E-01
DAV:  12    -0.160730623479E+03    0.20564E-03   -0.18634E-02  1920   0.930E-01    0.359E-01
DAV:  13    -0.160729935226E+03    0.68825E-03   -0.82476E-03  1784   0.596E-01    0.234E-01
DAV:  14    -0.160729488933E+03    0.44629E-03   -0.36105E-03  2104   0.462E-01    0.108E-01
DAV:  15    -0.160729472722E+03    0.16211E-04   -0.11751E-03  1928   0.248E-01    0.942E-02
DAV:  16    -0.160729436309E+03    0.36412E-04   -0.53610E-04  2096   0.183E-01    0.622E-02
DAV:  17    -0.160729415127E+03    0.21183E-04   -0.19101E-04  2000   0.113E-01    0.300E-02
DAV:  18    -0.160729424621E+03   -0.94942E-05   -0.13576E-04  1704   0.823E-02    0.383E-02
DAV:  19    -0.160729409827E+03    0.14794E-04   -0.70290E-05  1272   0.649E-02    0.113E-02
DAV:  20    -0.160729409638E+03    0.18879E-06   -0.11462E-05   664   0.258E-02
  15 F= -.16072941E+03 E0= -.16066104E+03  d E =-.144209E+01
       N       E                     dE             d eps       ncg     rms          rms(c)
DAV:   1    -0.152658465523E+03    0.80709E+01   -0.27531E+03  1144   0.260E+02    0.264E+01
DAV:   2    -0.232373195144E+03   -0.79715E+02   -0.97974E+02  1948   0.252E+02    0.669E+01
DAV:   3    -0.175744900727E+03    0.56628E+02   -0.36882E+02  1864   0.141E+02    0.347E+01
DAV:   4    -0.163886561867E+03    0.11858E+02   -0.76253E+01  1816   0.608E+01    0.184E+01
DAV:   5    -0.162248049077E+03    0.16385E+01   -0.17479E+01  2056   0.298E+01    0.135E+01
DAV:   6    -0.160835863828E+03    0.14122E+01   -0.73684E+00  2176   0.214E+01    0.836E+00
DAV:   7    -0.161411712730E+03   -0.57585E+00   -0.89851E+00  1960   0.212E+01    0.104E+01
DAV:   8    -0.160492698099E+03    0.91901E+00   -0.71602E+00  2176   0.194E+01    0.551E+00
DAV:   9    -0.160468257546E+03    0.24441E-01   -0.28162E+00  2160   0.133E+01    0.498E+00
DAV:  10    -0.160373805368E+03    0.94452E-01   -0.16381E+00  2168   0.103E+01    0.305E+00
DAV:  11    -0.160299674177E+03    0.74131E-01   -0.63861E-01  1872   0.583E+00    0.163E+00
DAV:  12    -0.160299466189E+03    0.20799E-03   -0.35025E-01  2032   0.421E+00    0.151E+00
DAV:  13    -0.160295670410E+03    0.37958E-02   -0.23854E-01  2160   0.351E+00    0.123E+00
DAV:  14    -0.160284431616E+03    0.11239E-01   -0.84511E-02  2144   0.216E+00    0.662E-01
DAV:  15    -0.160279950760E+03    0.44809E-02   -0.36033E-02  1760   0.130E+00    0.200E-01
DAV:  16    -0.160280028298E+03   -0.77538E-04   -0.48842E-03  1808   0.532E-01    0.158E-01
DAV:  17    -0.160279896075E+03    0.13222E-03   -0.13423E-03  1752   0.269E-01    0.885E-02
DAV:  18    -0.160279854185E+03    0.41890E-04   -0.77241E-04  1744   0.183E-01    0.615E-02
DAV:  19    -0.160279841980E+03    0.12205E-04   -0.30713E-04  1792   0.122E-01    0.475E-02
DAV:  20    -0.160279820965E+03    0.21015E-04   -0.15679E-04  1712   0.876E-02    0.195E-02
DAV:  21    -0.160279821549E+03   -0.58370E-06   -0.43752E-05  1096   0.533E-02
  16 F= -.16027982E+03 E0= -.16020810E+03  d E =-.992501E+00
       N       E                     dE             d eps       ncg     rms          rms(c)
DAV:   1    -0.159464081998E+03    0.81574E+00   -0.14387E+03  1140   0.181E+02    0.172E+01
DAV:   2    -0.192329428714E+03   -0.32865E+02   -0.36626E+02  1928   0.148E+02    0.548E+01
DAV:   3    -0.162572238487E+03    0.29757E+02   -0.14008E+02  1936   0.924E+01    0.182E+01
DAV:   4    -0.161739955043E+03    0.83228E+00   -0.30719E+01  1720   0.361E+01    0.901E+00
DAV:   5    -0.161916400756E+03   -0.17645E+00   -0.70767E+00  2088   0.192E+01    0.904E+00
DAV:   6    -0.161392499764E+03    0.52390E+00   -0.39430E+00  2152   0.165E+01    0.531E+00
DAV:   7    -0.161713585182E+03   -0.32109E+00   -0.45806E+00  1824   0.136E+01    0.725E+00
DAV:   8    -0.161219983435E+03    0.49360E+00   -0.40209E+00  1848   0.134E+01    0.234E+00
DAV:   9    -0.161199613690E+03    0.20370E-01   -0.73181E-01  1784   0.551E+00    0.161E+00
DAV:  10    -0.161191969339E+03    0.76444E-02   -0.23461E-01  1880   0.347E+00    0.127E+00
DAV:  11    -0.161181327914E+03    0.10641E-01   -0.11892E-01  1904   0.244E+00    0.769E-01
DAV:  12    -0.161180226091E+03    0.11018E-02   -0.83496E-02  1816   0.193E+00    0.664E-01
DAV:  13    -0.161179071818E+03    0.11543E-02   -0.41298E-02  2064   0.141E+00    0.536E-01
DAV:  14    -0.161176544437E+03    0.25274E-02   -0.18227E-02  1952   0.916E-01    0.162E-01
DAV:  15    -0.161176754195E+03   -0.20976E-03   -0.52230E-03  2160   0.530E-01    0.218E-01
DAV:  16    -0.161176367191E+03    0.38700E-03   -0.28822E-03  2160   0.397E-01    0.698E-02
DAV:  17    -0.161176397535E+03   -0.30344E-04   -0.54978E-04  2072   0.173E-01    0.711E-02
DAV:  18    -0.161176357538E+03    0.39997E-04   -0.34077E-04  2040   0.125E-01    0.258E-02
DAV:  19    -0.161176356155E+03    0.13830E-05   -0.81751E-05  1624   0.634E-02
  17 F= -.16117636E+03 E0= -.16110043E+03  d E =-.188904E+01
       N       E                     dE             d eps       ncg     rms          rms(c)
DAV:   1    -0.161180163444E+03   -0.38059E-02   -0.31455E+02  1088   0.665E+01    0.704E+00
DAV:   2    -0.167611907290E+03   -0.64317E+01   -0.65977E+01  2080   0.581E+01    0.233E+01
DAV:   3    -0.161439627225E+03    0.61723E+01   -0.33098E+01  2080   0.410E+01    0.566E+00
DAV:   4    -0.161350750349E+03    0.88877E-01   -0.37282E+00  1776   0.130E+01    0.323E+00
DAV:   5    -0.161370824254E+03   -0.20074E-01   -0.11806E+00  2160   0.807E+00    0.367E+00
DAV:   6    -0.161268852660E+03    0.10197E+00   -0.11742E+00  2176   0.831E+00    0.177E+00
DAV:   7    -0.161276574428E+03   -0.77218E-02   -0.37564E-01  1912   0.430E+00    0.180E+00
DAV:   8    -0.161246796910E+03    0.29778E-01   -0.19756E-01  2136   0.308E+00    0.586E-01
DAV:   9    -0.161246474370E+03    0.32254E-03   -0.30596E-02  1832   0.129E+00    0.442E-01
DAV:  10    -0.161247216703E+03   -0.74233E-03   -0.24807E-02  2040   0.109E+00    0.518E-01
DAV:  11    -0.161245082989E+03    0.21337E-02   -0.18800E-02  2144   0.973E-01    0.195E-01
DAV:  12    -0.161245002087E+03    0.80902E-04   -0.38651E-03  2128   0.529E-01    0.143E-01
DAV:  13    -0.161244811840E+03    0.19025E-03   -0.13352E-03  1912   0.273E-01    0.532E-02
DAV:  14    -0.161244809205E+03    0.26350E-05   -0.39541E-04  2048   0.132E-01    0.440E-02
DAV:  15    -0.161244812258E+03   -0.30533E-05   -0.22381E-04  2056   0.115E-01    0.427E-02
DAV:  16    -0.161244793195E+03    0.19063E-04   -0.12787E-04  1664   0.851E-02    0.122E-02
DAV:  17    -0.161244792915E+03    0.28015E-06   -0.24174E-05   752   0.416E-02
  18 F= -.16124479E+03 E0= -.16117315E+03  d E =-.195747E+01
       N       E                     dE             d eps       ncg     rms          rms(c)
DAV:   1    -0.161291921880E+03   -0.47129E-01   -0.70042E+01  1088   0.315E+01    0.322E+00
DAV:   2    -0.162580123331E+03   -0.12882E+01   -0.12871E+01  2048   0.265E+01    0.117E+01
DAV:   3    -0.161337037115E+03    0.12431E+01   -0.79579E+00  2128   0.202E+01    0.249E+00
DAV:   4    -0.161336453887E+03    0.58323E-03   -0.68733E-01  1708   0.559E+00    0.154E+00
DAV:   5    -0.161342689574E+03   -0.62357E-02   -0.29659E-01  2176   0.419E+00    0.187E+00
DAV:   6    -0.161319145699E+03    0.23544E-01   -0.28757E-01  2160   0.437E+00    0.103E+00
DAV:   7    -0.161326739563E+03   -0.75939E-02   -0.14933E-01  2032   0.287E+00    0.129E+00
DAV:   8    -0.161310614241E+03    0.16125E-01   -0.83058E-02  2168   0.222E+00    0.249E-01
DAV:   9    -0.161311377867E+03   -0.76363E-03   -0.12164E-02  1840   0.769E-01    0.295E-01
DAV:  10    -0.161310858556E+03    0.51931E-03   -0.61517E-03  1912   0.562E-01    0.171E-01
DAV:  11    -0.161310663943E+03    0.19461E-03   -0.27724E-03  2088   0.376E-01    0.994E-02
DAV:  12    -0.161310658233E+03    0.57098E-05   -0.13633E-03  1800   0.242E-01    0.908E-02
DAV:  13    -0.161310593975E+03    0.64258E-04   -0.68352E-04  1776   0.168E-01    0.462E-02
DAV:  14    -0.161310580712E+03    0.13263E-04   -0.17156E-04  1944   0.955E-02    0.212E-02
DAV:  15    -0.161310580743E+03   -0.31310E-07   -0.37556E-05   960   0.556E-02
  19 F= -.16131058E+03 E0= -.16123708E+03  d E =-.202326E+01
       N       E                     dE             d eps       ncg     rms          rms(c)
DAV:   1    -0.161861469261E+03   -0.55089E+00   -0.87514E+01  1088   0.356E+01    0.420E+00
DAV:   2    -0.164324087552E+03   -0.24626E+01   -0.21888E+01  2096   0.361E+01    0.168E+01
DAV:   3    -0.161908027838E+03    0.24161E+01   -0.14346E+01  2160   0.284E+01    0.404E+00
DAV:   4    -0.161875426544E+03    0.32601E-01   -0.14617E+00  2032   0.893E+00    0.212E+00
DAV:   5    -0.161865007294E+03    0.10419E-01   -0.46985E-01  2072   0.513E+00    0.199E+00
DAV:   6    -0.161854690324E+03    0.10317E-01   -0.53781E-01  1880   0.482E+00    0.168E+00
DAV:   7    -0.161843727566E+03    0.10963E-01   -0.25870E-01  1880   0.341E+00    0.134E+00
DAV:   8    -0.161827312897E+03    0.16415E-01   -0.10363E-01  1808   0.218E+00    0.406E-01
DAV:   9    -0.161827858312E+03   -0.54541E-03   -0.23007E-02  1792   0.966E-01    0.355E-01
DAV:  10    -0.161827247380E+03    0.61093E-03   -0.98423E-03  2064   0.746E-01    0.250E-01
DAV:  11    -0.161826692698E+03    0.55468E-03   -0.45803E-03  1888   0.450E-01    0.100E-01
DAV:  12    -0.161826746981E+03   -0.54283E-04   -0.17436E-03  1816   0.293E-01    0.112E-01
DAV:  13    -0.161826650468E+03    0.96512E-04   -0.96354E-04  1952   0.224E-01    0.538E-02
DAV:  14    -0.161826642622E+03    0.78470E-05   -0.29489E-04  2048   0.126E-01    0.427E-02
DAV:  15    -0.161826635506E+03    0.71159E-05   -0.12488E-04  1880   0.873E-02    0.275E-02
DAV:  16    -0.161826627911E+03    0.75944E-05   -0.23132E-05   736   0.570E-02
  20 F= -.16182663E+03 E0= -.16175305E+03  d E =-.516047E+00
       N       E                     dE             d eps       ncg     rms          rms(c)
DAV:   1    -0.162315861921E+03   -0.48923E+00   -0.85522E+02  1172   0.131E+02    0.133E+01
DAV:   2    -0.185490786179E+03   -0.23175E+02   -0.23213E+02  2048   0.111E+02    0.466E+01
DAV:   3    -0.164347848856E+03    0.21143E+02   -0.14655E+02  2096   0.946E+01    0.160E+01
DAV:   4    -0.162662716980E+03    0.16851E+01   -0.21316E+01  1856   0.293E+01    0.587E+00
DAV:   5    -0.163032306004E+03   -0.36959E+00   -0.67952E+00  2040   0.181E+01    0.844E+00
DAV:   6    -0.162404027761E+03    0.62828E+00   -0.42885E+00  2168   0.152E+01    0.413E+00
DAV:   7    -0.162719540725E+03   -0.31551E+00   -0.36644E+00  2160   0.122E+01    0.783E+00
DAV:   8    -0.162299219486E+03    0.42032E+00   -0.21255E+00  2160   0.985E+00    0.177E+00
DAV:   9    -0.162292029337E+03    0.71901E-02   -0.44746E-01  1760   0.408E+00    0.112E+00
DAV:  10    -0.162284891727E+03    0.71376E-02   -0.91461E-02  1816   0.218E+00    0.613E-01
DAV:  11    -0.162283085081E+03    0.18066E-02   -0.44710E-02  2144   0.156E+00    0.429E-01
DAV:  12    -0.162283044313E+03    0.40769E-04   -0.21123E-02  1896   0.986E-01    0.354E-01
DAV:  13    -0.162281708909E+03    0.13354E-02   -0.10502E-02  1720   0.613E-01    0.832E-02
DAV:  14    -0.162281890590E+03   -0.18168E-03   -0.19649E-03  1832   0.285E-01    0.135E-01
DAV:  15    -0.162281755298E+03    0.13529E-03   -0.11014E-03  1968   0.234E-01    0.638E-02
DAV:  16    -0.162281734252E+03    0.21046E-04   -0.37531E-04  1832   0.130E-01    0.407E-02
DAV:  17    -0.162281724396E+03    0.98554E-05   -0.10604E-04  1536   0.719E-02    0.185E-02
DAV:  18    -0.162281719990E+03    0.44061E-05   -0.18264E-05   816   0.407E-02
  21 F= -.16228172E+03 E0= -.16221325E+03  d E =-.971139E+00
       N       E                     dE             d eps       ncg     rms          rms(c)
DAV:   1    -0.162405540002E+03   -0.12382E+00   -0.89115E+01  1088   0.337E+01    0.426E+00
DAV:   2    -0.164630859810E+03   -0.22253E+01   -0.21312E+01  2168   0.332E+01    0.157E+01
DAV:   3    -0.162400415620E+03    0.22304E+01   -0.12254E+01  2176   0.271E+01    0.322E+00
DAV:   4    -0.162416787404E+03   -0.16372E-01   -0.13407E+00  1936   0.873E+00    0.234E+00
DAV:   5    -0.162424579242E+03   -0.77918E-02   -0.63645E-01  2112   0.619E+00    0.285E+00
DAV:   6    -0.162366675172E+03    0.57904E-01   -0.62491E-01  2160   0.583E+00    0.116E+00
DAV:   7    -0.162373633564E+03   -0.69584E-02   -0.21437E-01  1928   0.313E+00    0.130E+00
DAV:   8    -0.162355629553E+03    0.18004E-01   -0.10602E-01  1776   0.217E+00    0.296E-01
DAV:   9    -0.162356339766E+03   -0.71021E-03   -0.17114E-02  1848   0.870E-01    0.317E-01
DAV:  10    -0.162355838155E+03    0.50161E-03   -0.63860E-03  2104   0.607E-01    0.198E-01
DAV:  11    -0.162355541298E+03    0.29686E-03   -0.36042E-03  2000   0.390E-01    0.105E-01
DAV:  12    -0.162355568997E+03   -0.27698E-04   -0.15338E-03  2088   0.258E-01    0.101E-01
DAV:  13    -0.162355477166E+03    0.91831E-04   -0.78782E-04  2064   0.199E-01    0.400E-02
DAV:  14    -0.162355470550E+03    0.66154E-05   -0.18193E-04  1880   0.967E-02    0.293E-02
DAV:  15    -0.162355464592E+03    0.59577E-05   -0.62857E-05  1312   0.610E-02
  22 F= -.16235546E+03 E0= -.16229012E+03  d E =-.104488E+01
       N       E                     dE             d eps       ncg     rms          rms(c)
DAV:   1    -0.163356289817E+03   -0.10008E+01   -0.69250E+01  1088   0.309E+01    0.566E+00
DAV:   2    -0.167386254052E+03   -0.40300E+01   -0.32966E+01  2144   0.441E+01    0.222E+01
DAV:   3    -0.163098941058E+03    0.42873E+01   -0.22409E+01  2168   0.349E+01    0.296E+00
DAV:   4    -0.163348228849E+03   -0.24929E+00   -0.31454E+00  2008   0.117E+01    0.521E+00
DAV:   5    -0.163164173271E+03    0.18406E+00   -0.11998E+00  2072   0.917E+00    0.189E+00
DAV:   6    -0.163158975205E+03    0.51981E-02   -0.60264E-01  1968   0.546E+00    0.182E+00
DAV:   7    -0.163137227479E+03    0.21748E-01   -0.23111E-01  2152   0.359E+00    0.972E-01
DAV:   8    -0.163130757515E+03    0.64700E-02   -0.79322E-02  2152   0.195E+00    0.534E-01
DAV:   9    -0.163130629255E+03    0.12826E-03   -0.22138E-02  2152   0.107E+00    0.399E-01
DAV:  10    -0.163128896544E+03    0.17327E-02   -0.13999E-02  1768   0.790E-01    0.124E-01
DAV:  11    -0.163129112904E+03   -0.21636E-03   -0.44498E-03  1776   0.429E-01    0.165E-01
DAV:  12    -0.163128887179E+03    0.22572E-03   -0.17469E-03  1920   0.315E-01    0.780E-02
DAV:  13    -0.163128848117E+03    0.39062E-04   -0.49608E-04  1848   0.158E-01    0.479E-02
DAV:  14    -0.163128864984E+03   -0.16867E-04   -0.29110E-04  1848   0.113E-01    0.590E-02
DAV:  15    -0.163128833450E+03    0.31534E-04   -0.17825E-04  1760   0.895E-02    0.174E-02
DAV:  16    -0.163128832239E+03    0.12114E-05   -0.19359E-05   760   0.476E-02
  23 F= -.16312883E+03 E0= -.16306696E+03  d E =-.773368E+00
       N       E                     dE             d eps       ncg     rms          rms(c)
DAV:   1    -0.165641478863E+03   -0.25126E+01   -0.63080E+02  1088   0.964E+01    0.167E+01
DAV:   2    -0.190054328033E+03   -0.24413E+02   -0.22389E+02  2160   0.123E+02    0.482E+01
DAV:   3    -0.164727483376E+03    0.25327E+02   -0.12411E+02  1992   0.801E+01    0.110E+01
DAV:   4    -0.165427194763E+03   -0.69971E+00   -0.24354E+01  1984   0.300E+01    0.115E+01
DAV:   5    -0.164771123310E+03    0.65607E+00   -0.97809E+00  2080   0.230E+01    0.641E+00
DAV:   6    -0.164485509861E+03    0.28561E+00   -0.61820E+00  1832   0.179E+01    0.496E+00
DAV:   7    -0.164423063171E+03    0.62447E-01   -0.22074E+00  2168   0.114E+01    0.483E+00
DAV:   8    -0.164310907671E+03    0.11216E+00   -0.88610E-01  2128   0.675E+00    0.282E+00
DAV:   9    -0.164285589756E+03    0.25318E-01   -0.28462E-01  2120   0.418E+00    0.217E+00
DAV:  10    -0.164257139239E+03    0.28451E-01   -0.17651E-01  2160   0.298E+00    0.651E-01
DAV:  11    -0.164260827156E+03   -0.36879E-02   -0.62241E-02  1768   0.163E+00    0.666E-01
DAV:  12    -0.164256154474E+03    0.46727E-02   -0.34573E-02  1728   0.126E+00    0.213E-01
DAV:  13    -0.164256394407E+03   -0.23993E-03   -0.54896E-03  1776   0.488E-01    0.195E-01
DAV:  14    -0.164256115184E+03    0.27922E-03   -0.20139E-03  1912   0.350E-01    0.893E-02
DAV:  15    -0.164256120366E+03   -0.51816E-05   -0.64885E-04  2120   0.198E-01    0.821E-02
DAV:  16    -0.164256066774E+03    0.53592E-04   -0.35604E-04  2136   0.138E-01    0.229E-02
DAV:  17    -0.164256067661E+03   -0.88753E-06   -0.79528E-05  1464   0.634E-02
  24 F= -.16425607E+03 E0= -.16419286E+03  d E =-.190060E+01
       N       E                     dE             d eps       ncg     rms          rms(c)
DAV:   1    -0.165687912320E+03   -0.14318E+01   -0.90704E+01  1088   0.359E+01    0.668E+00
DAV:   2    -0.171320106261E+03   -0.56322E+01   -0.45886E+01  2176   0.547E+01    0.264E+01
DAV:   3    -0.165468199968E+03    0.58519E+01   -0.31805E+01  2104   0.436E+01    0.572E+00
DAV:   4    -0.165576746531E+03   -0.10855E+00   -0.36293E+00  1992   0.126E+01    0.396E+00
DAV:   5    -0.165549292105E+03    0.27454E-01   -0.11570E+00  1872   0.779E+00    0.284E+00
DAV:   6    -0.165483135408E+03    0.66157E-01   -0.85201E-01  1824   0.607E+00    0.181E+00
DAV:   7    -0.165479700702E+03    0.34347E-02   -0.28523E-01  2072   0.378E+00    0.137E+00
DAV:   8    -0.165461527620E+03    0.18173E-01   -0.14711E-01  1816   0.241E+00    0.602E-01
DAV:   9    -0.165462507104E+03   -0.97948E-03   -0.35925E-02  1824   0.125E+00    0.527E-01
DAV:  10    -0.165459679156E+03    0.28279E-02   -0.19961E-02  1824   0.946E-01    0.137E-01
DAV:  11    -0.165459935791E+03   -0.25663E-03   -0.40837E-03  1952   0.444E-01    0.178E-01
DAV:  12    -0.165459617101E+03    0.31869E-03   -0.19010E-03  2048   0.343E-01    0.461E-02
DAV:  13    -0.165459635483E+03   -0.18381E-04   -0.36673E-04  1904   0.144E-01    0.503E-02
DAV:  14    -0.165459615514E+03    0.19969E-04   -0.17688E-04  1760   0.114E-01    0.258E-02
DAV:  15    -0.165459611726E+03    0.37875E-05   -0.77078E-05  1472   0.645E-02
  25 F= -.16545961E+03 E0= -.16539729E+03  d E =-.120354E+01
       N       E                     dE             d eps       ncg     rms          rms(c)
DAV:   1    -0.166944507585E+03   -0.14849E+01   -0.24223E+02  1088   0.586E+01    0.118E+01
DAV:   2    -0.183294668825E+03   -0.16350E+02   -0.13658E+02  2176   0.966E+01    0.418E+01
DAV:   3    -0.166421065222E+03    0.16874E+02   -0.83924E+01  2056   0.654E+01    0.101E+01
DAV:   4    -0.166537276283E+03   -0.11621E+00   -0.91948E+00  2016   0.207E+01    0.586E+00
DAV:   5    -0.166466167297E+03    0.71109E-01   -0.26331E+00  2056   0.113E+01    0.431E+00
DAV:   6    -0.166412064127E+03    0.54103E-01   -0.20731E+00  1848   0.962E+00    0.334E+00
DAV:   7    -0.166332334695E+03    0.79729E-01   -0.99165E-01  2152   0.714E+00    0.215E+00
DAV:   8    -0.166309640065E+03    0.22695E-01   -0.29061E-01  1776   0.358E+00    0.173E+00
DAV:   9    -0.166297354249E+03    0.12286E-01   -0.85074E-02  2176   0.215E+00    0.951E-01
DAV:  10    -0.166292366585E+03    0.49877E-02   -0.45167E-02  2160   0.162E+00    0.467E-01
DAV:  11    -0.166293575882E+03   -0.12093E-02   -0.19803E-02  2128   0.118E+00    0.515E-01
DAV:  12    -0.166291415183E+03    0.21607E-02   -0.11976E-02  2120   0.905E-01    0.144E-01
DAV:  13    -0.166291473344E+03   -0.58161E-04   -0.20309E-03  1832   0.303E-01    0.118E-01
DAV:  14    -0.166291407473E+03    0.65871E-04   -0.81119E-04  1920   0.201E-01    0.650E-02
DAV:  15    -0.166291376891E+03    0.30583E-04   -0.38705E-04  2104   0.144E-01    0.337E-02
DAV:  16    -0.166291375129E+03    0.17616E-05   -0.12105E-04  1760   0.837E-02    0.290E-02
DAV:  17    -0.166291364845E+03    0.10284E-04   -0.42921E-05  1056   0.543E-02    0.118E-02
DAV:  18    -0.166291365776E+03   -0.93017E-06   -0.22993E-05   800   0.260E-02
  26 F= -.16629137E+03 E0= -.16622238E+03  d E =-.203530E+01
       N       E                     dE             d eps       ncg     rms          rms(c)
DAV:   1    -0.167061815957E+03   -0.77045E+00   -0.51161E+01  1088   0.261E+01    0.317E+00
DAV:   2    -0.168723751419E+03   -0.16619E+01   -0.12955E+01  2112   0.271E+01    0.145E+01
DAV:   3    -0.167155094170E+03    0.15687E+01   -0.94446E+00  2136   0.230E+01    0.399E+00
DAV:   4    -0.167080203317E+03    0.74891E-01   -0.78466E-01  1936   0.734E+00    0.162E+00
DAV:   5    -0.167091710666E+03   -0.11507E-01   -0.36475E-01  2096   0.417E+00    0.228E+00
DAV:   6    -0.167059504419E+03    0.32206E-01   -0.32460E-01  2176   0.422E+00    0.111E+00
DAV:   7    -0.167069789002E+03   -0.10285E-01   -0.18568E-01  2176   0.337E+00    0.139E+00
DAV:   8    -0.167051077692E+03    0.18711E-01   -0.10580E-01  2160   0.237E+00    0.352E-01
DAV:   9    -0.167050753659E+03    0.32403E-03   -0.14056E-02  1776   0.762E-01    0.180E-01
DAV:  10    -0.167050618716E+03    0.13494E-03   -0.32366E-03  1832   0.420E-01    0.125E-01
DAV:  11    -0.167050481038E+03    0.13768E-03   -0.14460E-03  1992   0.283E-01    0.637E-02
DAV:  12    -0.167050548434E+03   -0.67396E-04   -0.71699E-04  2144   0.226E-01    0.108E-01
DAV:  13    -0.167050463224E+03    0.85210E-04   -0.50489E-04  2144   0.193E-01    0.275E-02
DAV:  14    -0.167050465049E+03   -0.18252E-05   -0.81586E-05  1480   0.694E-02
  27 F= -.16705047E+03 E0= -.16698263E+03  d E =-.759099E+00
       N       E                     dE             d eps       ncg     rms          rms(c)
DAV:   1    -0.167702543876E+03   -0.65208E+00   -0.21734E+02  1088   0.564E+01    0.627E+00
DAV:   2    -0.173274664856E+03   -0.55721E+01   -0.49428E+01  1976   0.514E+01    0.244E+01
DAV:   3    -0.168117971547E+03    0.51567E+01   -0.32784E+01  2136   0.431E+01    0.776E+00
DAV:   4    -0.167833681770E+03    0.28429E+00   -0.30263E+00  1960   0.145E+01    0.348E+00
DAV:   5    -0.167885046760E+03   -0.51365E-01   -0.16020E+00  2096   0.855E+00    0.475E+00
DAV:   6    -0.167739852705E+03    0.14519E+00   -0.12592E+00  2176   0.847E+00    0.224E+00
DAV:   7    -0.167761743514E+03   -0.21891E-01   -0.71971E-01  2176   0.675E+00    0.247E+00
DAV:   8    -0.167702344762E+03    0.59399E-01   -0.37145E-01  2008   0.441E+00    0.600E-01
DAV:   9    -0.167702366485E+03   -0.21722E-04   -0.57773E-02  1760   0.163E+00    0.403E-01
DAV:  10    -0.167701183664E+03    0.11828E-02   -0.14148E-02  1800   0.854E-01    0.207E-01
DAV:  11    -0.167700881574E+03    0.30209E-03   -0.56121E-03  1816   0.515E-01    0.142E-01
DAV:  12    -0.167700893252E+03   -0.11678E-04   -0.19593E-03  2176   0.359E-01    0.138E-01
DAV:  13    -0.167700760930E+03    0.13232E-03   -0.10482E-03  2176   0.265E-01    0.547E-02
DAV:  14    -0.167700772761E+03   -0.11831E-04   -0.33241E-04  2128   0.149E-01    0.551E-02
DAV:  15    -0.167700744175E+03    0.28586E-04   -0.18916E-04  1864   0.101E-01    0.118E-02
DAV:  16    -0.167700745969E+03   -0.17943E-05   -0.23920E-05   840   0.455E-02
  28 F= -.16770075E+03 E0= -.16763455E+03  d E =-.140938E+01
       N       E                     dE             d eps       ncg     rms          rms(c)
DAV:   1    -0.168149656674E+03   -0.44891E+00   -0.32383E+01  1088   0.237E+01    0.579E+00
DAV:   2    -0.173055257163E+03   -0.49056E+01   -0.35183E+01  2176   0.505E+01    0.251E+01
DAV:   3    -0.167849498952E+03    0.52058E+01   -0.25203E+01  2128   0.416E+01    0.315E+00
DAV:   4    -0.168120293614E+03   -0.27079E+00   -0.30060E+00  1960   0.105E+01    0.434E+00
DAV:   5    -0.168039090860E+03    0.81203E-01   -0.58703E-01  2000   0.644E+00    0.204E+00
DAV:   6    -0.168019705739E+03    0.19385E-01   -0.27226E-01  2000   0.385E+00    0.133E+00
DAV:   7    -0.168012942933E+03    0.67628E-02   -0.15809E-01  2128   0.292E+00    0.982E-01
DAV:   8    -0.168009158670E+03    0.37843E-02   -0.10537E-01  2064   0.216E+00    0.921E-01
DAV:   9    -0.168005853702E+03    0.33050E-02   -0.19734E-02  2056   0.110E+00    0.579E-01
DAV:  10    -0.168003999482E+03    0.18542E-02   -0.10027E-02  2176   0.731E-01    0.294E-01
DAV:  11    -0.168003988050E+03    0.11431E-04   -0.37012E-03  2096   0.518E-01    0.249E-01
DAV:  12    -0.168003610964E+03    0.37709E-03   -0.19980E-03  2088   0.373E-01    0.887E-02
DAV:  13    -0.168003609076E+03    0.18884E-05   -0.51096E-04  1824   0.158E-01    0.745E-02
DAV:  14    -0.168003587437E+03    0.21639E-04   -0.10483E-04  1576   0.758E-02    0.485E-02
DAV:  15    -0.168003579075E+03    0.83616E-05   -0.20516E-05   824   0.451E-02
  29 F= -.16800358E+03 E0= -.16793831E+03  d E =-.302833E+00
       N       E                     dE             d eps       ncg     rms          rms(c)
DAV:   1    -0.168192494908E+03   -0.18891E+00   -0.22860E+01  1088   0.201E+01    0.488E+00
DAV:   2    -0.171742101262E+03   -0.35496E+01   -0.24602E+01  2176   0.429E+01    0.216E+01
DAV:   3    -0.167986738133E+03    0.37554E+01   -0.17830E+01  2168   0.362E+01    0.233E+00
DAV:   4    -0.168164377020E+03   -0.17764E+00   -0.19841E+00  1840   0.837E+00    0.314E+00
DAV:   5    -0.168119030067E+03    0.45347E-01   -0.42418E-01  1976   0.562E+00    0.177E+00
DAV:   6    -0.168108240457E+03    0.10790E-01   -0.18517E-01  2080   0.353E+00    0.127E+00
DAV:   7    -0.168101550713E+03    0.66897E-02   -0.11161E-01  2136   0.268E+00    0.878E-01
DAV:   8    -0.168097031756E+03    0.45190E-02   -0.78027E-02  2120   0.190E+00    0.661E-01
DAV:   9    -0.168095620088E+03    0.14117E-02   -0.14651E-02  2000   0.944E-01    0.455E-01
DAV:  10    -0.168094333814E+03    0.12863E-02   -0.73845E-03  2176   0.679E-01    0.205E-01
DAV:  11    -0.168094268648E+03    0.65166E-04   -0.22380E-03  2064   0.419E-01    0.152E-01
DAV:  12    -0.168094151942E+03    0.11671E-03   -0.79051E-04  2048   0.243E-01    0.680E-02
DAV:  13    -0.168094135235E+03    0.16707E-04   -0.26205E-04  1808   0.118E-01    0.485E-02
DAV:  14    -0.168094127662E+03    0.75731E-05   -0.31546E-05   936   0.516E-02
  30 F= -.16809413E+03 E0= -.16802784E+03  d E =-.393382E+00
       N       E                     dE             d eps       ncg     rms          rms(c)
DAV:   1    -0.168323517721E+03   -0.22938E+00   -0.17285E+01  1112   0.195E+01    0.441E+00
DAV:   2    -0.171383648509E+03   -0.30601E+01   -0.20790E+01  2168   0.362E+01    0.213E+01
DAV:   3    -0.168206078958E+03    0.31776E+01   -0.13027E+01  2160   0.265E+01    0.232E+00
DAV:   4    -0.168285571622E+03   -0.79493E-01   -0.10080E+00  1912   0.722E+00    0.227E+00
DAV:   5    -0.168266809015E+03    0.18763E-01   -0.33072E-01  1952   0.544E+00    0.160E+00
DAV:   6    -0.168249221835E+03    0.17587E-01   -0.17855E-01  2016   0.340E+00    0.710E-01
DAV:   7    -0.168248060333E+03    0.11615E-02   -0.52298E-02  2080   0.168E+00    0.577E-01
DAV:   8    -0.168244119996E+03    0.39403E-02   -0.26810E-02  1800   0.117E+00    0.180E-01
DAV:   9    -0.168244586049E+03   -0.46605E-03   -0.68078E-03  1976   0.603E-01    0.278E-01
DAV:  10    -0.168244041693E+03    0.54436E-03   -0.36668E-03  2120   0.541E-01    0.116E-01
DAV:  11    -0.168243975812E+03    0.65881E-04   -0.76716E-04  2016   0.244E-01    0.562E-02
DAV:  12    -0.168243974483E+03    0.13291E-05   -0.32881E-04  1776   0.124E-01    0.360E-02
DAV:  13    -0.168243968382E+03    0.61012E-05   -0.13913E-04  1648   0.780E-02    0.223E-02
DAV:  14    -0.168243966577E+03    0.18051E-05   -0.24709E-05   808   0.492E-02
  31 F= -.16824397E+03 E0= -.16817432E+03  d E =-.149839E+00
       N       E                     dE             d eps       ncg     rms          rms(c)
DAV:   1    -0.168292984330E+03   -0.49016E-01   -0.60857E+00  1088   0.114E+01    0.264E+00
DAV:   2    -0.169444648974E+03   -0.11517E+01   -0.75216E+00  2176   0.217E+01    0.134E+01
DAV:   3    -0.168250494274E+03    0.11942E+01   -0.52470E+00  2160   0.170E+01    0.130E+00
DAV:   4    -0.168278460502E+03   -0.27966E-01   -0.33921E-01  1808   0.419E+00    0.125E+00
DAV:   5    -0.168273109479E+03    0.53510E-02   -0.11404E-01  1896   0.329E+00    0.106E+00
DAV:   6    -0.168266276651E+03    0.68328E-02   -0.58791E-02  1960   0.211E+00    0.465E-01
DAV:   7    -0.168265600560E+03    0.67609E-03   -0.18515E-02  2088   0.101E+00    0.320E-01
DAV:   8    -0.168264387367E+03    0.12132E-02   -0.89094E-03  1752   0.652E-01    0.991E-02
DAV:   9    -0.168264483114E+03   -0.95748E-04   -0.21137E-03  1768   0.294E-01    0.123E-01
DAV:  10    -0.168264327766E+03    0.15535E-03   -0.10242E-03  1800   0.233E-01    0.377E-02
DAV:  11    -0.168264348267E+03   -0.20501E-04   -0.23955E-04  2048   0.133E-01    0.616E-02
DAV:  12    -0.168264328419E+03    0.19848E-04   -0.13846E-04  1984   0.105E-01    0.192E-02
DAV:  13    -0.168264327651E+03    0.76796E-06   -0.40610E-05  1152   0.455E-02
  32 F= -.16826433E+03 E0= -.16819310E+03  d E =-.170200E+00
       N       E                     dE             d eps       ncg     rms          rms(c)
DAV:   1    -0.168264788770E+03   -0.46035E-03   -0.53219E-02  1100   0.104E+00    0.250E-01
DAV:   2    -0.168275075668E+03   -0.10287E-01   -0.65476E-02  2160   0.204E+00    0.128E+00
DAV:   3    -0.168264417570E+03    0.10658E-01   -0.49190E-02  2176   0.175E+00    0.117E-01
DAV:   4    -0.168264698165E+03   -0.28059E-03   -0.33632E-03  1784   0.403E-01    0.146E-01
DAV:   5    -0.168264626116E+03    0.72049E-04   -0.11898E-03  2024   0.323E-01    0.108E-01
DAV:   6    -0.168264560793E+03    0.65323E-04   -0.58606E-04  2056   0.216E-01    0.522E-02
DAV:   7    -0.168264549767E+03    0.11025E-04   -0.20282E-04  1832   0.101E-01    0.312E-02
DAV:   8    -0.168264538702E+03    0.11065E-04   -0.82742E-05  1520   0.642E-02    0.102E-02
DAV:   9    -0.168264540752E+03   -0.20501E-05   -0.16495E-05   604   0.415E-02
  33 F= -.16826454E+03 E0= -.16819346E+03  d E =-.170413E+00
       N       E                     dE             d eps       ncg     rms          rms(c)
DAV:   1    -0.168296265364E+03   -0.31727E-01   -0.24351E+00  1088   0.568E+00    0.760E-01
DAV:   2    -0.168408060072E+03   -0.11179E+00   -0.72621E-01  2176   0.692E+00    0.389E+00
DAV:   3    -0.168295829224E+03    0.11223E+00   -0.49343E-01  2176   0.595E+00    0.473E-01
DAV:   4    -0.168298261472E+03   -0.24322E-02   -0.35290E-02  1792   0.145E+00    0.452E-01
DAV:   5    -0.168298029942E+03    0.23153E-03   -0.13943E-02  1808   0.955E-01    0.399E-01
DAV:   6    -0.168296774715E+03    0.12552E-02   -0.10866E-02  2032   0.809E-01    0.190E-01
DAV:   7    -0.168296547290E+03    0.22742E-03   -0.21841E-03  2152   0.351E-01    0.941E-02
DAV:   8    -0.168296494968E+03    0.52322E-04   -0.84402E-04  1936   0.193E-01    0.532E-02
DAV:   9    -0.168296518424E+03   -0.23456E-04   -0.42068E-04  2128   0.173E-01    0.859E-02
DAV:  10    -0.168296468339E+03    0.50085E-04   -0.25566E-04  2088   0.141E-01    0.215E-02
DAV:  11    -0.168296469455E+03   -0.11158E-05   -0.57206E-05  1304   0.568E-02
  34 F= -.16829647E+03 E0= -.16822484E+03  d E =-.319287E-01
       N       E                     dE             d eps       ncg     rms          rms(c)
DAV:   1    -0.168361251109E+03   -0.64783E-01   -0.21849E+01  1088   0.168E+01    0.231E+00
DAV:   2    -0.169375377785E+03   -0.10141E+01   -0.66372E+00  2176   0.209E+01    0.115E+01
DAV:   3    -0.168349071373E+03    0.10263E+01   -0.43526E+00  2176   0.184E+01    0.134E+00
DAV:   4    -0.168377983903E+03   -0.28913E-01   -0.36041E-01  1824   0.440E+00    0.140E+00
DAV:   5    -0.168373371551E+03    0.46124E-02   -0.11906E-01  1848   0.282E+00    0.110E+00
DAV:   6    -0.168364737779E+03    0.86338E-02   -0.99052E-02  2088   0.240E+00    0.636E-01
DAV:   7    -0.168362004889E+03    0.27329E-02   -0.25700E-02  2128   0.120E+00    0.275E-01
DAV:   8    -0.168361448099E+03    0.55679E-03   -0.96019E-03  1792   0.622E-01    0.195E-01
DAV:   9    -0.168361372536E+03    0.75564E-04   -0.33751E-03  2176   0.459E-01    0.156E-01
DAV:  10    -0.168361197419E+03    0.17512E-03   -0.18325E-03  2168   0.324E-01    0.866E-02
DAV:  11    -0.168361207257E+03   -0.98385E-05   -0.66391E-04  2112   0.228E-01    0.862E-02
DAV:  12    -0.168361154085E+03    0.53172E-04   -0.31050E-04  2048   0.145E-01    0.223E-02
DAV:  13    -0.168361151117E+03    0.29678E-05   -0.47442E-05  1128   0.509E-02
  35 F= -.16836115E+03 E0= -.16828943E+03  d E =-.966104E-01
       N       E                     dE             d eps       ncg     rms          rms(c)
DAV:   1    -0.168327659635E+03    0.33494E-01   -0.87365E+01  1088   0.334E+01    0.463E+00
DAV:   2    -0.172101093726E+03   -0.37734E+01   -0.25430E+01  2176   0.410E+01    0.212E+01
DAV:   3    -0.168248635143E+03    0.38525E+01   -0.15988E+01  2160   0.356E+01    0.243E+00
DAV:   4    -0.168392667295E+03   -0.14403E+00   -0.17064E+00  1848   0.853E+00    0.259E+00
DAV:   5    -0.168364593127E+03    0.28074E-01   -0.47288E-01  2000   0.559E+00    0.207E+00
DAV:   6    -0.168350087365E+03    0.14506E-01   -0.36604E-01  2064   0.469E+00    0.169E+00
DAV:   7    -0.168335847734E+03    0.14240E-01   -0.17113E-01  2112   0.315E+00    0.108E+00
DAV:   8    -0.168328612676E+03    0.72351E-02   -0.93747E-02  2176   0.224E+00    0.650E-01
DAV:   9    -0.168327105843E+03    0.15068E-02   -0.19815E-02  2136   0.110E+00    0.343E-01
DAV:  10    -0.168326101773E+03    0.10041E-02   -0.10845E-02  2136   0.709E-01    0.164E-01
DAV:  11    -0.168326321399E+03   -0.21963E-03   -0.39372E-03  2096   0.540E-01    0.236E-01
DAV:  12    -0.168326024261E+03    0.29714E-03   -0.22131E-03  2096   0.411E-01    0.946E-02
DAV:  13    -0.168325950181E+03    0.74080E-04   -0.60860E-04  1872   0.177E-01    0.310E-02
DAV:  14    -0.168325957725E+03   -0.75436E-05   -0.14604E-04  1768   0.841E-02    0.347E-02
DAV:  15    -0.168325944086E+03    0.13639E-04   -0.54791E-05  1184   0.611E-02    0.121E-02
DAV:  16    -0.168325943458E+03    0.62860E-06   -0.19888E-05   712   0.372E-02
  36 F= -.16832594E+03 E0= -.16825855E+03  d E =-.614027E-01
       N       E                     dE             d eps       ncg     rms          rms(c)
DAV:   1    -0.168364039933E+03   -0.38096E-01   -0.40106E+01  1088   0.242E+01    0.310E+00
DAV:   2    -0.170184726795E+03   -0.18207E+01   -0.12235E+01  2144   0.283E+01    0.160E+01
DAV:   3    -0.168386321712E+03    0.17984E+01   -0.77973E+00  2160   0.220E+01    0.254E+00
DAV:   4    -0.168404625651E+03   -0.18304E-01   -0.74024E-01  2000   0.629E+00    0.168E+00
DAV:   5    -0.168412974179E+03   -0.83485E-02   -0.24676E-01  2080   0.392E+00    0.208E+00
DAV:   6    -0.168380032742E+03    0.32941E-01   -0.18975E-01  2088   0.341E+00    0.633E-01
DAV:   7    -0.168382147387E+03   -0.21146E-02   -0.61792E-02  1848   0.163E+00    0.728E-01
DAV:   8    -0.168376339621E+03    0.58078E-02   -0.40358E-02  1800   0.134E+00    0.160E-01
DAV:   9    -0.168376977760E+03   -0.63814E-03   -0.92990E-03  1808   0.646E-01    0.260E-01
DAV:  10    -0.168376333329E+03    0.64443E-03   -0.43322E-03  2072   0.517E-01    0.110E-01
DAV:  11    -0.168376289606E+03    0.43722E-04   -0.70471E-04  2024   0.245E-01    0.703E-02
DAV:  12    -0.168376289581E+03    0.25710E-07   -0.40874E-04  2048   0.159E-01    0.538E-02
DAV:  13    -0.168376265506E+03    0.24075E-04   -0.24914E-04  1736   0.101E-01    0.210E-02
DAV:  14    -0.168376265663E+03   -0.15705E-06   -0.38868E-05  1024   0.489E-02
  37 F= -.16837627E+03 E0= -.16830592E+03  d E =-.111725E+00
       N       E                     dE             d eps       ncg     rms          rms(c)
DAV:   1    -0.168425550994E+03   -0.49285E-01   -0.71880E+00  1088   0.107E+01    0.176E+00
DAV:   2    -0.168910944333E+03   -0.48539E+00   -0.30792E+00  2144   0.143E+01    0.881E+00
DAV:   3    -0.168420308104E+03    0.49064E+00   -0.21308E+00  2160   0.117E+01    0.114E+00
DAV:   4    -0.168429538085E+03   -0.92300E-02   -0.18697E-01  1920   0.322E+00    0.965E-01
DAV:   5    -0.168431753483E+03   -0.22154E-02   -0.87003E-02  2032   0.249E+00    0.118E+00
DAV:   6    -0.168421540295E+03    0.10213E-01   -0.58362E-02  2056   0.184E+00    0.297E-01
DAV:   7    -0.168421788370E+03   -0.24808E-03   -0.13087E-02  1856   0.765E-01    0.300E-01
DAV:   8    -0.168420799329E+03    0.98904E-03   -0.73863E-03  1760   0.568E-01    0.825E-02
DAV:   9    -0.168420991748E+03   -0.19242E-03   -0.19910E-03  2104   0.357E-01    0.180E-01
DAV:  10    -0.168420771384E+03    0.22036E-03   -0.11916E-03  2104   0.307E-01    0.563E-02
DAV:  11    -0.168420754399E+03    0.16985E-04   -0.21668E-04  1928   0.119E-01    0.239E-02
DAV:  12    -0.168420757065E+03   -0.26655E-05   -0.69962E-05  1464   0.602E-02
  38 F= -.16842076E+03 E0= -.16835270E+03  d E =-.444914E-01
       N       E                     dE             d eps       ncg     rms          rms(c)
DAV:   1    -0.168458591185E+03   -0.37837E-01   -0.16026E+01  1088   0.162E+01    0.261E+00
DAV:   2    -0.169566238333E+03   -0.11076E+01   -0.69450E+00  2128   0.215E+01    0.134E+01
DAV:   3    -0.168445416794E+03    0.11208E+01   -0.47197E+00  2144   0.170E+01    0.172E+00
DAV:   4    -0.168468325335E+03   -0.22909E-01   -0.43269E-01  1952   0.477E+00    0.149E+00
DAV:   5    -0.168473247435E+03   -0.49221E-02   -0.20162E-01  2032   0.378E+00    0.180E+00
DAV:   6    -0.168449501967E+03    0.23745E-01   -0.13192E-01  2056   0.277E+00    0.431E-01
DAV:   7    -0.168450052732E+03   -0.55077E-03   -0.28657E-02  1776   0.111E+00    0.432E-01
DAV:   8    -0.168447924538E+03    0.21282E-02   -0.16168E-02  1752   0.830E-01    0.114E-01
DAV:   9    -0.168448312165E+03   -0.38763E-03   -0.41059E-03  2120   0.484E-01    0.259E-01
DAV:  10    -0.168447858558E+03    0.45361E-03   -0.25193E-03  2128   0.435E-01    0.783E-02
DAV:  11    -0.168447833523E+03    0.25035E-04   -0.44937E-04  1928   0.170E-01    0.404E-02
DAV:  12    -0.168447837700E+03   -0.41772E-05   -0.19130E-04  1800   0.984E-02    0.348E-02
DAV:  13    -0.168447826250E+03    0.11450E-04   -0.95708E-05  1488   0.693E-02    0.134E-02
DAV:  14    -0.168447827716E+03   -0.14658E-05   -0.18708E-05   712   0.374E-02
  39 F= -.16844783E+03 E0= -.16838163E+03  d E =-.715621E-01
       N       E                     dE             d eps       ncg     rms          rms(c)
DAV:   1    -0.168479431367E+03   -0.31605E-01   -0.28010E+00  1088   0.612E+00    0.946E-01
DAV:   2    -0.168641314135E+03   -0.16188E+00   -0.10475E+00  2176   0.811E+00    0.499E+00
DAV:   3    -0.168478461067E+03    0.16285E+00   -0.72821E-01  2176   0.700E+00    0.600E-01
DAV:   4    -0.168480423860E+03   -0.19628E-02   -0.48751E-02  1712   0.163E+00    0.409E-01
DAV:   5    -0.168481830027E+03   -0.14062E-02   -0.21067E-02  2008   0.125E+00    0.682E-01
DAV:   6    -0.168479064802E+03    0.27652E-02   -0.16991E-02  2016   0.113E+00    0.220E-01
DAV:   7    -0.168479216195E+03   -0.15139E-03   -0.78069E-03  1848   0.604E-01    0.212E-01
DAV:   8    -0.168478713785E+03    0.50241E-03   -0.37437E-03  2040   0.433E-01    0.799E-02
DAV:   9    -0.168478704698E+03    0.90870E-05   -0.73521E-04  2160   0.213E-01    0.750E-02
DAV:  10    -0.168478702538E+03    0.21601E-05   -0.40730E-04  2112   0.175E-01    0.701E-02
DAV:  11    -0.168478663258E+03    0.39280E-04   -0.25920E-04  2064   0.120E-01    0.172E-02
DAV:  12    -0.168478665527E+03   -0.22696E-05   -0.59741E-05  1328   0.539E-02
  40 F= -.16847867E+03 E0= -.16841334E+03  d E =-.308378E-01
       N       E                     dE             d eps       ncg     rms          rms(c)
DAV:   1    -0.168537797629E+03   -0.59134E-01   -0.25102E+01  1088   0.181E+01    0.282E+00
DAV:   2    -0.169939128503E+03   -0.14013E+01   -0.92468E+00  2176   0.242E+01    0.144E+01
DAV:   3    -0.168530074824E+03    0.14091E+01   -0.64785E+00  2176   0.213E+01    0.196E+00
DAV:   4    -0.168551156776E+03   -0.21082E-01   -0.48134E-01  1736   0.515E+00    0.161E+00
DAV:   5    -0.168552991981E+03   -0.18352E-02   -0.18117E-01  1928   0.383E+00    0.156E+00
DAV:   6    -0.168535361315E+03    0.17631E-01   -0.13646E-01  2000   0.297E+00    0.620E-01
DAV:   7    -0.168537080028E+03   -0.17187E-02   -0.77539E-02  1832   0.184E+00    0.690E-01
DAV:   8    -0.168532113709E+03    0.49663E-02   -0.39552E-02  2160   0.144E+00    0.296E-01
DAV:   9    -0.168531863720E+03    0.24999E-03   -0.71407E-03  2136   0.711E-01    0.243E-01
DAV:  10    -0.168531749355E+03    0.11437E-03   -0.37614E-03  2120   0.521E-01    0.177E-01
DAV:  11    -0.168531468771E+03    0.28058E-03   -0.22515E-03  1992   0.331E-01    0.492E-02
DAV:  12    -0.168531498506E+03   -0.29736E-04   -0.55032E-04  1776   0.160E-01    0.609E-02
DAV:  13    -0.168531458405E+03    0.40101E-04   -0.25083E-04  1736   0.113E-01    0.161E-02
DAV:  14    -0.168531458392E+03    0.13459E-07   -0.37068E-05  1048   0.468E-02
  41 F= -.16853146E+03 E0= -.16846749E+03  d E =-.836307E-01
       N       E                     dE             d eps       ncg     rms          rms(c)
DAV:   1    -0.168534519275E+03   -0.30609E-02   -0.27957E+00  1088   0.613E+00    0.931E-01
DAV:   2    -0.168691321168E+03   -0.15680E+00   -0.99622E-01  2176   0.808E+00    0.496E+00
DAV:   3    -0.168534760211E+03    0.15656E+00   -0.70725E-01  2176   0.690E+00    0.657E-01
DAV:   4    -0.168536702797E+03   -0.19426E-02   -0.49298E-02  1744   0.166E+00    0.529E-01
DAV:   5    -0.168537008066E+03   -0.30527E-03   -0.19166E-02  1952   0.127E+00    0.546E-01
DAV:   6    -0.168534884452E+03    0.21236E-02   -0.15073E-02  2000   0.101E+00    0.194E-01
DAV:   7    -0.168535127235E+03   -0.24278E-03   -0.86100E-03  1856   0.619E-01    0.237E-01
DAV:   8    -0.168534605519E+03    0.52172E-03   -0.44059E-03  2168   0.507E-01    0.124E-01
DAV:   9    -0.168534521281E+03    0.84238E-04   -0.89122E-04  2096   0.262E-01    0.658E-02
DAV:  10    -0.168534526406E+03   -0.51249E-05   -0.45084E-04  2144   0.165E-01    0.603E-02
DAV:  11    -0.168534490533E+03    0.35873E-04   -0.25640E-04  1840   0.108E-01    0.152E-02
DAV:  12    -0.168534491292E+03   -0.75865E-06   -0.41809E-05  1008   0.516E-02
  42 F= -.16853449E+03 E0= -.16847050E+03  d E =-.866636E-01
       N       E                     dE             d eps       ncg     rms          rms(c)
DAV:   1    -0.168572262101E+03   -0.37772E-01   -0.40074E+00  1088   0.708E+00    0.684E-01
DAV:   2    -0.168636770963E+03   -0.64509E-01   -0.57125E-01  2008   0.547E+00    0.258E+00
DAV:   3    -0.168578298563E+03    0.58472E-01   -0.34786E-01  2152   0.461E+00    0.741E-01
DAV:   4    -0.168576570156E+03    0.17284E-02   -0.36267E-02  2112   0.161E+00    0.419E-01
DAV:   5    -0.168577741139E+03   -0.11710E-02   -0.20959E-02  2112   0.116E+00    0.691E-01
DAV:   6    -0.168575201312E+03    0.25398E-02   -0.19057E-02  2104   0.108E+00    0.346E-01
DAV:   7    -0.168574804064E+03    0.39725E-03   -0.10305E-02  2096   0.709E-01    0.210E-01
DAV:   8    -0.168574465619E+03    0.33844E-03   -0.36937E-03  2040   0.450E-01    0.131E-01
DAV:   9    -0.168574337996E+03    0.12762E-03   -0.10690E-03  2152   0.253E-01    0.555E-02
DAV:  10    -0.168574349318E+03   -0.11322E-04   -0.34822E-04  2064   0.159E-01    0.611E-02
DAV:  11    -0.168574323967E+03    0.25351E-04   -0.22044E-04  1960   0.113E-01    0.251E-02
DAV:  12    -0.168574317054E+03    0.69129E-05   -0.36645E-05  1016   0.517E-02
  43 F= -.16857432E+03 E0= -.16851020E+03  d E =-.398258E-01
       N       E                     dE             d eps       ncg     rms          rms(c)
DAV:   1    -0.168640148450E+03   -0.65824E-01   -0.36377E+01  1088   0.218E+01    0.213E+00
DAV:   2    -0.169303461654E+03   -0.66331E+00   -0.57423E+00  2064   0.175E+01    0.861E+00
DAV:   3    -0.168696084469E+03    0.60738E+00   -0.37209E+00  2152   0.147E+01    0.230E+00
DAV:   4    -0.168679216199E+03    0.16868E-01   -0.35856E-01  2112   0.494E+00    0.115E+00
DAV:   5    -0.168679192214E+03    0.23984E-04   -0.18240E-01  2072   0.314E+00    0.136E+00
DAV:   6    -0.168667967485E+03    0.11225E-01   -0.14850E-01  2152   0.306E+00    0.112E+00
DAV:   7    -0.168665910059E+03    0.20574E-02   -0.80784E-02  2144   0.244E+00    0.915E-01
DAV:   8    -0.168662768839E+03    0.31412E-02   -0.42955E-02  2120   0.166E+00    0.672E-01
DAV:   9    -0.168660110626E+03    0.26582E-02   -0.16085E-02  2120   0.106E+00    0.231E-01
DAV:  10    -0.168659956185E+03    0.15444E-03   -0.47081E-03  2032   0.541E-01    0.139E-01
DAV:  11    -0.168659822853E+03    0.13333E-03   -0.17879E-03  1816   0.293E-01    0.761E-02
DAV:  12    -0.168659763390E+03    0.59462E-04   -0.51025E-04  1776   0.161E-01    0.276E-02
DAV:  13    -0.168659766740E+03   -0.33495E-05   -0.10223E-04  1528   0.711E-02    0.257E-02
DAV:  14    -0.168659760146E+03    0.65941E-05   -0.48637E-05  1176   0.539E-02
  44 F= -.16865976E+03 E0= -.16859619E+03  d E =-.125269E+00
       N       E                     dE             d eps       ncg     rms          rms(c)
DAV:   1    -0.168520416827E+03    0.13935E+00   -0.14845E+02  1088   0.460E+01    0.461E+00
DAV:   2    -0.171898153628E+03   -0.33777E+01   -0.28666E+01  2096   0.385E+01    0.205E+01
DAV:   3    -0.168761493258E+03    0.31367E+01   -0.19532E+01  2160   0.321E+01    0.505E+00
DAV:   4    -0.168691939809E+03    0.69553E-01   -0.19702E+00  2128   0.108E+01    0.249E+00
DAV:   5    -0.168709061349E+03   -0.17122E-01   -0.83267E-01  2096   0.676E+00    0.340E+00
DAV:   6    -0.168662501680E+03    0.46560E-01   -0.69234E-01  2152   0.679E+00    0.286E+00
DAV:   7    -0.168626281890E+03    0.36220E-01   -0.42277E-01  2168   0.521E+00    0.152E+00
DAV:   8    -0.168632414714E+03   -0.61328E-02   -0.26654E-01  2160   0.389E+00    0.188E+00
DAV:   9    -0.168611168155E+03    0.21247E-01   -0.13930E-01  2144   0.313E+00    0.762E-01
DAV:  10    -0.168607530958E+03    0.36372E-02   -0.35752E-02  2032   0.151E+00    0.237E-01
DAV:  11    -0.168607613673E+03   -0.82715E-04   -0.81458E-03  1824   0.627E-01    0.221E-01
DAV:  12    -0.168607083426E+03    0.53025E-03   -0.34676E-03  1808   0.412E-01    0.565E-02
DAV:  13    -0.168607159213E+03   -0.75787E-04   -0.98446E-04  1752   0.198E-01    0.853E-02
DAV:  14    -0.168607079854E+03    0.79359E-04   -0.56950E-04  1728   0.165E-01    0.251E-02
DAV:  15    -0.168607083695E+03   -0.38411E-05   -0.10009E-04  1568   0.671E-02    0.249E-02
DAV:  16    -0.168607075907E+03    0.77888E-05   -0.28123E-05   936   0.462E-02
  45 F= -.16860708E+03 E0= -.16854050E+03  d E =-.725846E-01
       N       E                     dE             d eps       ncg     rms          rms(c)
DAV:   1    -0.168656647920E+03   -0.49564E-01   -0.66286E+01  1088   0.286E+01    0.284E+00
DAV:   2    -0.169766617159E+03   -0.11100E+01   -0.10024E+01  2064   0.220E+01    0.106E+01
DAV:   3    -0.168738909389E+03    0.10277E+01   -0.58895E+00  2176   0.190E+01    0.302E+00
DAV:   4    -0.168711604389E+03    0.27305E-01   -0.56789E-01  1952   0.669E+00    0.145E+00
DAV:   5    -0.168705362008E+03    0.62424E-02   -0.27992E-01  2056   0.399E+00    0.161E+00
DAV:   6    -0.168687896684E+03    0.17465E-01   -0.22080E-01  2160   0.369E+00    0.118E+00
DAV:   7    -0.168689467520E+03   -0.15708E-02   -0.10413E-01  2088   0.271E+00    0.122E+00
DAV:   8    -0.168681481571E+03    0.79859E-02   -0.61441E-02  2104   0.191E+00    0.615E-01
DAV:   9    -0.168679109858E+03    0.23717E-02   -0.17750E-02  2120   0.108E+00    0.281E-01
DAV:  10    -0.168678802383E+03    0.30748E-03   -0.48043E-03  2048   0.578E-01    0.145E-01
DAV:  11    -0.168678766337E+03    0.36046E-04   -0.19758E-03  1984   0.329E-01    0.110E-01
DAV:  12    -0.168678642813E+03    0.12352E-03   -0.89650E-04  1776   0.218E-01    0.370E-02
DAV:  13    -0.168678646857E+03   -0.40440E-05   -0.16794E-04  1784   0.884E-02    0.320E-02
DAV:  14    -0.168678637141E+03    0.97162E-05   -0.72988E-05  1336   0.630E-02
  46 F= -.16867864E+03 E0= -.16861534E+03  d E =-.144146E+00
       N       E                     dE             d eps       ncg     rms          rms(c)
DAV:   1    -0.168781771538E+03   -0.10312E+00   -0.12503E+01  1088   0.132E+01    0.215E+00
DAV:   2    -0.169473686342E+03   -0.69191E+00   -0.47379E+00  2144   0.179E+01    0.101E+01
DAV:   3    -0.168771393155E+03    0.70229E+00   -0.32768E+00  2152   0.156E+01    0.157E+00
DAV:   4    -0.168783872430E+03   -0.12479E-01   -0.34300E-01  1840   0.415E+00    0.124E+00
DAV:   5    -0.168794196396E+03   -0.10324E-01   -0.15586E-01  2048   0.329E+00    0.187E+00
DAV:   6    -0.168771992140E+03    0.22204E-01   -0.10964E-01  2056   0.282E+00    0.461E-01
DAV:   7    -0.168774289390E+03   -0.22972E-02   -0.43570E-02  1984   0.145E+00    0.668E-01
DAV:   8    -0.168771333823E+03    0.29556E-02   -0.25103E-02  2136   0.128E+00    0.386E-01
DAV:   9    -0.168770442527E+03    0.89130E-03   -0.66126E-03  2064   0.730E-01    0.144E-01
DAV:  10    -0.168770499984E+03   -0.57457E-04   -0.25505E-03  1928   0.368E-01    0.140E-01
DAV:  11    -0.168770304973E+03    0.19501E-03   -0.13582E-03  1760   0.257E-01    0.379E-02
DAV:  12    -0.168770323982E+03   -0.19009E-04   -0.29877E-04  1744   0.119E-01    0.452E-02
DAV:  13    -0.168770301741E+03    0.22241E-04   -0.15228E-04  1760   0.925E-02    0.140E-02
DAV:  14    -0.168770301167E+03    0.57406E-06   -0.16903E-05   704   0.386E-02
  47 F= -.16877030E+03 E0= -.16870575E+03  d E =-.916640E-01
       N       E                     dE             d eps       ncg     rms          rms(c)
DAV:   1    -0.168972172006E+03   -0.20187E+00   -0.90691E+01  1088   0.348E+01    0.582E+00
DAV:   2    -0.173636929868E+03   -0.46648E+01   -0.34604E+01  2160   0.483E+01    0.244E+01
DAV:   3    -0.168845048842E+03    0.47919E+01   -0.21892E+01  2160   0.415E+01    0.401E+00
DAV:   4    -0.169009827164E+03   -0.16478E+00   -0.30045E+00  1904   0.114E+01    0.404E+00
DAV:   5    -0.168997050583E+03    0.12777E-01   -0.10432E+00  1968   0.863E+00    0.331E+00
DAV:   6    -0.168907635351E+03    0.89415E-01   -0.67498E-01  2056   0.682E+00    0.137E+00
DAV:   7    -0.168923121458E+03   -0.15486E-01   -0.36363E-01  1896   0.410E+00    0.189E+00
DAV:   8    -0.168894561095E+03    0.28560E-01   -0.21279E-01  2176   0.353E+00    0.824E-01
DAV:   9    -0.168892083301E+03    0.24778E-02   -0.33916E-02  2024   0.164E+00    0.563E-01
DAV:  10    -0.168891669367E+03    0.41393E-03   -0.21449E-02  2080   0.117E+00    0.439E-01
DAV:  11    -0.168890187010E+03    0.14824E-02   -0.12163E-02  2008   0.806E-01    0.144E-01
DAV:  12    -0.168890332935E+03   -0.14592E-03   -0.38373E-03  1816   0.433E-01    0.173E-01
DAV:  13    -0.168890069015E+03    0.26392E-03   -0.19420E-03  2048   0.320E-01    0.545E-02
DAV:  14    -0.168890073411E+03   -0.43961E-05   -0.27692E-04  1752   0.113E-01    0.496E-02
DAV:  15    -0.168890057855E+03    0.15556E-04   -0.10219E-04  1560   0.775E-02    0.256E-02
DAV:  16    -0.168890052526E+03    0.53287E-05   -0.27337E-05   840   0.494E-02
  48 F= -.16889005E+03 E0= -.16882537E+03  d E =-.211415E+00
       N       E                     dE             d eps       ncg     rms          rms(c)
DAV:   1    -0.168938991794E+03   -0.48934E-01   -0.32034E+00  1088   0.663E+00    0.950E-01
DAV:   2    -0.169110698043E+03   -0.17171E+00   -0.11771E+00  2160   0.840E+00    0.517E+00
DAV:   3    -0.168939521910E+03    0.17118E+00   -0.81707E-01  2160   0.705E+00    0.621E-01
DAV:   4    -0.168941790171E+03   -0.22683E-02   -0.52278E-02  1728   0.171E+00    0.460E-01
DAV:   5    -0.168942168852E+03   -0.37868E-03   -0.22727E-02  1952   0.137E+00    0.611E-01
DAV:   6    -0.168940147395E+03    0.20215E-02   -0.17767E-02  1968   0.121E+00    0.307E-01
DAV:   7    -0.168940204366E+03   -0.56971E-04   -0.97653E-03  2080   0.759E-01    0.290E-01
DAV:   8    -0.168939777981E+03    0.42639E-03   -0.55574E-03  2144   0.604E-01    0.214E-01
DAV:   9    -0.168939478884E+03    0.29910E-03   -0.18414E-03  2056   0.361E-01    0.568E-02
DAV:  10    -0.168939492996E+03   -0.14113E-04   -0.48760E-04  1888   0.165E-01    0.549E-02
DAV:  11    -0.168939462581E+03    0.30415E-04   -0.24210E-04  1808   0.114E-01    0.186E-02
DAV:  12    -0.168939463461E+03   -0.87928E-06   -0.60644E-05  1320   0.578E-02
  49 F= -.16893946E+03 E0= -.16887522E+03  d E =-.494109E-01
       N       E                     dE             d eps       ncg     rms          rms(c)
DAV:   1    -0.169036487413E+03   -0.97025E-01   -0.29159E+01  1088   0.205E+01    0.277E+00
DAV:   2    -0.170470952616E+03   -0.14345E+01   -0.97383E+00  2160   0.244E+01    0.149E+01
DAV:   3    -0.169041373092E+03    0.14296E+01   -0.65886E+00  2144   0.193E+01    0.177E+00
DAV:   4    -0.169074547332E+03   -0.33174E-01   -0.52275E-01  1928   0.529E+00    0.176E+00
DAV:   5    -0.169066691189E+03    0.78561E-02   -0.22213E-01  2016   0.420E+00    0.161E+00
DAV:   6    -0.169051055901E+03    0.15635E-01   -0.16448E-01  2064   0.341E+00    0.768E-01
DAV:   7    -0.169051168067E+03   -0.11217E-03   -0.77187E-02  1888   0.190E+00    0.686E-01
DAV:   8    -0.169046399799E+03    0.47683E-02   -0.38518E-02  1968   0.134E+00    0.312E-01
DAV:   9    -0.169046301587E+03    0.98212E-04   -0.85119E-03  2008   0.785E-01    0.282E-01
[...]
DAV:   3    -0.173134126279E+03    0.23198E-01   -0.95681E-02  2176   0.280E+00    0.260E-01
DAV:   4    -0.173134606051E+03   -0.47977E-03   -0.93037E-03  1880   0.783E-01    0.222E-01
DAV:   5    -0.173134394284E+03    0.21177E-03   -0.36643E-03  1952   0.606E-01    0.149E-01
DAV:   6    -0.173134213174E+03    0.18111E-03   -0.25621E-03  1992   0.405E-01    0.905E-02
DAV:   7    -0.173134249040E+03   -0.35866E-04   -0.89829E-04  2104   0.270E-01    0.125E-01
DAV:   8    -0.173134143956E+03    0.10508E-03   -0.45291E-04  2072   0.209E-01    0.377E-02
DAV:   9    -0.173134138964E+03    0.49925E-05   -0.12228E-04  1688   0.888E-02    0.204E-02
DAV:  10    -0.173134135462E+03    0.35017E-05   -0.24246E-05   752   0.519E-02
 210 F= -.17313414E+03 E0= -.17308920E+03  d E =-.114206E-02
       N       E                     dE             d eps       ncg     rms          rms(c)
DAV:   1    -0.173134692380E+03   -0.55342E-03   -0.11718E-01  1088   0.146E+00    0.307E-01
DAV:   2    -0.173149657632E+03   -0.14965E-01   -0.88034E-02  2128   0.276E+00    0.149E+00
DAV:   3    -0.173134432230E+03    0.15225E-01   -0.61398E-02  2176   0.231E+00    0.217E-01
DAV:   4    -0.173134609793E+03   -0.17756E-03   -0.52516E-03  1776   0.570E-01    0.136E-01
DAV:   5    -0.173134618008E+03   -0.82148E-05   -0.14949E-03  1784   0.365E-01    0.106E-01
DAV:   6    -0.173134538470E+03    0.79539E-04   -0.86884E-04  1872   0.259E-01    0.707E-02
DAV:   7    -0.173134552556E+03   -0.14086E-04   -0.38288E-04  1904   0.199E-01    0.751E-02
DAV:   8    -0.173134508060E+03    0.44496E-04   -0.22531E-04  1912   0.143E-01    0.212E-02
DAV:   9    -0.173134507546E+03    0.51383E-06   -0.67310E-05  1328   0.615E-02
 211 F= -.17313451E+03 E0= -.17308984E+03  d E =-.372084E-03
       N       E                     dE             d eps       ncg     rms          rms(c)
DAV:   1    -0.173134505441E+03    0.26192E-05   -0.23030E-04  1328   0.692E-02    0.168E-02
DAV:   2    -0.173134556986E+03   -0.51545E-04   -0.33109E-04  2176   0.153E-01    0.890E-02
DAV:   3    -0.173134502913E+03    0.54073E-04   -0.22700E-04  2152   0.137E-01    0.142E-02
DAV:   4    -0.173134502376E+03    0.53670E-06   -0.12793E-05   656   0.343E-02
 212 F= -.17313450E+03 E0= -.17308985E+03  d E =-.366914E-03
       N       E                     dE             d eps       ncg     rms          rms(c)
DAV:   1    -0.173134742325E+03   -0.23941E-03   -0.49982E-02  1088   0.833E-01    0.936E-02
DAV:   2    -0.173136159036E+03   -0.14167E-02   -0.86516E-03  2128   0.820E-01    0.449E-01
DAV:   3    -0.173134811443E+03    0.13476E-02   -0.50024E-03  2120   0.673E-01    0.640E-02
DAV:   4    -0.173134834007E+03   -0.22563E-04   -0.49708E-04  1848   0.170E-01    0.471E-02
DAV:   5    -0.173134831682E+03    0.23245E-05   -0.18057E-04  1984   0.136E-01    0.516E-02
DAV:   6    -0.173134814895E+03    0.16787E-04   -0.17300E-04  1896   0.123E-01    0.327E-02
DAV:   7    -0.173134816558E+03   -0.16625E-05   -0.87723E-05  1632   0.965E-02
 213 F= -.17313482E+03 E0= -.17309015E+03  d E =-.314182E-03
       N       E                     dE             d eps       ncg     rms          rms(c)
DAV:   1    -0.173134679361E+03    0.13553E-03   -0.20865E-01  1088   0.171E+00    0.190E-01
DAV:   2    -0.173140489629E+03   -0.58103E-02   -0.35394E-02  2128   0.166E+00    0.907E-01
DAV:   3    -0.173134971777E+03    0.55179E-02   -0.20342E-02  2120   0.135E+00    0.126E-01
DAV:   4    -0.173135075185E+03   -0.10341E-03   -0.20015E-03  1840   0.340E-01    0.976E-02
DAV:   5    -0.173135054081E+03    0.21104E-04   -0.74785E-04  2136   0.272E-01    0.100E-01
DAV:   6    -0.173134999950E+03    0.54132E-04   -0.73566E-04  2072   0.247E-01    0.712E-02
DAV:   7    -0.173135011634E+03   -0.11684E-04   -0.41774E-04  2152   0.196E-01    0.773E-02
DAV:   8    -0.173134962295E+03    0.49339E-04   -0.23794E-04  2120   0.139E-01    0.132E-02
DAV:   9    -0.173134962487E+03   -0.19209E-06   -0.22606E-05   824   0.440E-02
 214 F= -.17313496E+03 E0= -.17309034E+03  d E =-.460111E-03
       N       E                     dE             d eps       ncg     rms          rms(c)
DAV:   1    -0.173134963409E+03   -0.11144E-05   -0.11973E-02  1088   0.406E-01    0.453E-02
DAV:   2    -0.173135302397E+03   -0.33899E-03   -0.20902E-03  2152   0.396E-01    0.217E-01
DAV:   3    -0.173134982725E+03    0.31967E-03   -0.12129E-03  2152   0.330E-01    0.308E-02
DAV:   4    -0.173134987280E+03   -0.45542E-05   -0.10975E-04  1552   0.838E-02    0.230E-02
DAV:   5    -0.173134986857E+03    0.42298E-06   -0.32685E-05   984   0.708E-02
 215 F= -.17313499E+03 E0= -.17309036E+03  d E =-.484481E-03
       N       E                     dE             d eps       ncg     rms          rms(c)
DAV:   1    -0.173135224269E+03   -0.23699E-03   -0.70797E-02  1088   0.113E+00    0.223E-01
DAV:   2    -0.173143522518E+03   -0.82982E-02   -0.47285E-02  2152   0.200E+00    0.113E+00
DAV:   3    -0.173135058762E+03    0.84638E-02   -0.33100E-02  2176   0.168E+00    0.136E-01
DAV:   4    -0.173135215917E+03   -0.15716E-03   -0.27792E-03  1784   0.413E-01    0.104E-01
DAV:   5    -0.173135191386E+03    0.24530E-04   -0.65480E-04  1784   0.259E-01    0.711E-02
DAV:   6    -0.173135165121E+03    0.26265E-04   -0.31103E-04  1816   0.172E-01    0.498E-02
DAV:   7    -0.173135166446E+03   -0.13251E-05   -0.16503E-04  1824   0.130E-01    0.441E-02
DAV:   8    -0.173135148608E+03    0.17839E-04   -0.94772E-05  1536   0.861E-02    0.111E-02
DAV:   9    -0.173135148292E+03    0.31519E-06   -0.17328E-05   640   0.417E-02
 216 F= -.17313515E+03 E0= -.17309052E+03  d E =-.161436E-03
       N       E                     dE             d eps       ncg     rms          rms(c)
DAV:   1    -0.173135149378E+03   -0.77055E-06   -0.16398E-04  1176   0.556E-02    0.136E-02
DAV:   2    -0.173135182575E+03   -0.33197E-04   -0.20733E-04  2144   0.125E-01    0.720E-02
DAV:   3    -0.173135147456E+03    0.35119E-04   -0.14680E-04  2032   0.111E-01    0.110E-02
DAV:   4    -0.173135147167E+03    0.28875E-06   -0.87785E-06   616   0.285E-02
 217 F= -.17313515E+03 E0= -.17309054E+03  d E =-.160311E-03
       N       E                     dE             d eps       ncg     rms          rms(c)
DAV:   1    -0.173135241174E+03   -0.93718E-04   -0.39989E-02  1088   0.782E-01    0.112E-01
DAV:   2    -0.173137176885E+03   -0.19357E-02   -0.12113E-02  2160   0.995E-01    0.530E-01
DAV:   3    -0.173135249578E+03    0.19273E-02   -0.77435E-03  2176   0.820E-01    0.807E-02
DAV:   4    -0.173135274416E+03   -0.24838E-04   -0.67205E-04  1712   0.204E-01    0.519E-02
DAV:   5    -0.173135272921E+03    0.14948E-05   -0.22417E-04  1744   0.150E-01    0.431E-02
DAV:   6    -0.173135259054E+03    0.13867E-04   -0.15664E-04  1768   0.113E-01    0.329E-02
DAV:   7    -0.173135259738E+03   -0.68378E-06   -0.76897E-05  1544   0.961E-02
 218 F= -.17313526E+03 E0= -.17309057E+03  d E =-.112570E-03
       N       E                     dE             d eps       ncg     rms          rms(c)
DAV:   1    -0.173135252069E+03    0.69847E-05   -0.12821E-02  1088   0.447E-01    0.605E-02
DAV:   2    -0.173135806800E+03   -0.55473E-03   -0.35189E-03  2160   0.538E-01    0.278E-01
DAV:   3    -0.173135255284E+03    0.55152E-03   -0.22201E-03  2176   0.444E-01    0.427E-02
DAV:   4    -0.173135263244E+03   -0.79601E-05   -0.19342E-04  1712   0.111E-01    0.316E-02
DAV:   5    -0.173135258819E+03    0.44251E-05   -0.50840E-05  1128   0.822E-02
 219 F= -.17313526E+03 E0= -.17309054E+03  d E =-.111651E-03
       N       E                     dE             d eps       ncg     rms          rms(c)
DAV:   1    -0.173135286336E+03   -0.23092E-04   -0.43539E-02  1088   0.802E-01    0.967E-02
DAV:   2    -0.173136679554E+03   -0.13932E-02   -0.87049E-03  2152   0.830E-01    0.451E-01
DAV:   3    -0.173135331049E+03    0.13485E-02   -0.53270E-03  2160   0.680E-01    0.725E-02
DAV:   4    -0.173135347403E+03   -0.16355E-04   -0.57537E-04  1880   0.194E-01    0.560E-02
DAV:   5    -0.173135334992E+03    0.12412E-04   -0.18335E-04  1864   0.131E-01    0.345E-02
DAV:   6    -0.173135327044E+03    0.79482E-05   -0.13604E-04  1648   0.955E-02    0.250E-02
DAV:   7    -0.173135328738E+03   -0.16949E-05   -0.44323E-05  1144   0.789E-02
 220 F= -.17313533E+03 E0= -.17309066E+03  d E =-.699199E-04
       N       E                     dE             d eps       ncg     rms          rms(c)
DAV:   1    -0.173135320827E+03    0.62161E-05   -0.20309E-05   768   0.634E-02    0.790E-03
DAV:   2    -0.173135327633E+03   -0.68056E-05   -0.73350E-05  1304   0.563E-02
 221 F= -.17313533E+03 E0= -.17309067E+03  d E =-.688145E-04
       N       E                     dE             d eps       ncg     rms          rms(c)
DAV:   1    -0.173135320322E+03    0.50580E-06   -0.21851E-05   748   0.518E-02    0.798E-03
DAV:   2    -0.173135337430E+03   -0.17109E-04   -0.16264E-04  1568   0.721E-02    0.379E-02
DAV:   3    -0.173135321632E+03    0.15798E-04   -0.58416E-05  1264   0.726E-02    0.114E-02
DAV:   4    -0.173135321178E+03    0.45405E-06   -0.83616E-06   604   0.228E-02
 222 F= -.17313532E+03 E0= -.17309066E+03  d E =-.623597E-04
       N       E                     dE             d eps       ncg     rms          rms(c)
DAV:   1    -0.173135363757E+03   -0.42125E-04   -0.60690E-03  1088   0.283E-01    0.282E-02
DAV:   2    -0.173135487296E+03   -0.12354E-03   -0.93855E-04  2128   0.249E-01    0.123E-01
DAV:   3    -0.173135370517E+03    0.11678E-03   -0.52994E-04  2120   0.203E-01    0.267E-02
DAV:   4    -0.173135366815E+03    0.37015E-05   -0.28597E-05   888   0.596E-02
 223 F= -.17313537E+03 E0= -.17309075E+03  d E =-.456371E-04
       N       E                     dE             d eps       ncg     rms          rms(c)
DAV:   1    -0.173135377780E+03   -0.72635E-05   -0.14832E-02  1088   0.443E-01    0.477E-02
DAV:   2    -0.173135690479E+03   -0.31270E-03   -0.23945E-03  2120   0.403E-01    0.203E-01
DAV:   3    -0.173135390182E+03    0.30030E-03   -0.13810E-03  2096   0.332E-01    0.527E-02
DAV:   4    -0.173135379787E+03    0.10395E-04   -0.15218E-04  1784   0.109E-01    0.242E-02
DAV:   5    -0.173135378610E+03    0.11774E-05   -0.50677E-05  1184   0.729E-02
 224 F= -.17313538E+03 E0= -.17309082E+03  d E =-.574314E-04
       N       E                     dE             d eps       ncg     rms          rms(c)
DAV:   1    -0.173135376546E+03    0.32407E-05   -0.10899E-03  1116   0.143E-01    0.226E-02
DAV:   2    -0.173135487665E+03   -0.11112E-03   -0.65323E-04  2104   0.240E-01    0.119E-01
DAV:   3    -0.173135376846E+03    0.11082E-03   -0.43480E-04  2064   0.203E-01    0.187E-02
DAV:   4    -0.173135375370E+03    0.14765E-05   -0.22979E-05   880   0.487E-02
 225 F= -.17313538E+03 E0= -.17309081E+03  d E =-.541913E-04
       N       E                     dE             d eps       ncg     rms          rms(c)
DAV:   1    -0.173135376231E+03    0.61526E-06   -0.18849E-03  1088   0.158E-01    0.189E-02
DAV:   2    -0.173135430973E+03   -0.54742E-04   -0.37385E-04  2128   0.166E-01    0.860E-02
DAV:   3    -0.173135377822E+03    0.53151E-04   -0.23037E-04  2024   0.137E-01    0.187E-02
DAV:   4    -0.173135376209E+03    0.16127E-05   -0.14384E-05   608   0.417E-02
 226 F= -.17313538E+03 E0= -.17309078E+03  d E =-.550308E-04
       N       E                     dE             d eps       ncg     rms          rms(c)
DAV:   1    -0.173135378369E+03   -0.54769E-06   -0.26120E-04  1088   0.664E-02    0.158E-02
DAV:   2    -0.173135437108E+03   -0.58739E-04   -0.29045E-04  2064   0.161E-01    0.967E-02
DAV:   3    -0.173135376364E+03    0.60744E-04   -0.20594E-04  2008   0.139E-01    0.838E-03
DAV:   4    -0.173135377240E+03   -0.87605E-06   -0.10241E-05   664   0.268E-02
 227 F= -.17313538E+03 E0= -.17309079E+03  d E =-.560616E-04
       N       E                     dE             d eps       ncg     rms          rms(c)
DAV:   1    -0.173135377853E+03   -0.14894E-05   -0.19090E-04  1088   0.508E-02    0.530E-03
DAV:   2    -0.173135380079E+03   -0.22254E-05   -0.13649E-05   544   0.443E-02
 228 F= -.17313538E+03 E0= -.17309081E+03  d E =-.589004E-04
       N       E                     dE             d eps       ncg     rms          rms(c)
DAV:   1    -0.173135405006E+03   -0.27152E-04   -0.36034E-03  1112   0.291E-01    0.729E-02
DAV:   2    -0.173136254398E+03   -0.84939E-03   -0.46902E-03  2160   0.626E-01    0.365E-01
DAV:   3    -0.173135375458E+03    0.87894E-03   -0.34616E-03  2176   0.541E-01    0.444E-02
DAV:   4    -0.173135394470E+03   -0.19012E-04   -0.30525E-04  1800   0.137E-01    0.375E-02
DAV:   5    -0.173135389850E+03    0.46198E-05   -0.58289E-05  1192   0.907E-02
 229 F= -.17313539E+03 E0= -.17309087E+03  d E =-.977116E-05
       N       E                     dE             d eps       ncg     rms          rms(c)
DAV:   1    -0.173135388165E+03    0.63052E-05   -0.30565E-04  1284   0.101E-01    0.323E-02
DAV:   2    -0.173135598847E+03   -0.21068E-03   -0.10818E-03  2160   0.300E-01    0.181E-01
DAV:   3    -0.173135379631E+03    0.21922E-03   -0.80965E-04  2160   0.266E-01    0.184E-02
DAV:   4    -0.173135383337E+03   -0.37059E-05   -0.48826E-05  1256   0.530E-02
 230 F= -.17313538E+03 E0= -.17309087E+03  d E =-.325828E-05
       N       E                     dE             d eps       ncg     rms          rms(c)
DAV:   1    -0.173135387053E+03   -0.74219E-05   -0.97923E-05  1156   0.612E-02    0.132E-02
DAV:   2    -0.173135416619E+03   -0.29566E-04   -0.18896E-04  2072   0.127E-01    0.648E-02
DAV:   3    -0.173135385962E+03    0.30657E-04   -0.12772E-04  1968   0.105E-01    0.110E-02
DAV:   4    -0.173135385568E+03    0.39320E-06   -0.80842E-06   548   0.290E-02
 231 F= -.17313539E+03 E0= -.17309086E+03  d E =-.548958E-05
       N       E                     dE             d eps       ncg     rms          rms(c)
DAV:   1    -0.173135387017E+03   -0.10558E-05   -0.33152E-05   808   0.306E-02    0.876E-03
DAV:   2    -0.173135391761E+03   -0.47440E-05   -0.24361E-05   684   0.550E-02
 232 F= -.17313539E+03 E0= -.17309090E+03  d E =-.116826E-04
       N       E                     dE             d eps       ncg     rms          rms(c)
DAV:   1    -0.173135385512E+03    0.15053E-05   -0.17897E-05   576   0.530E-02    0.634E-03
DAV:   2    -0.173135388878E+03   -0.33655E-05   -0.17496E-05   612   0.459E-02
 233 F= -.17313539E+03 E0= -.17309085E+03  d E =-.879880E-05
       N       E                     dE             d eps       ncg     rms          rms(c)
DAV:   1    -0.173135386456E+03   -0.94392E-06   -0.11098E-05   544   0.479E-02    0.491E-03
DAV:   2    -0.173135389219E+03   -0.27628E-05   -0.13827E-05   620   0.445E-02
 234 F= -.17313539E+03 E0= -.17309089E+03  d E =-.914000E-05
       N       E                     dE             d eps       ncg     rms          rms(c)
DAV:   1    -0.173135386205E+03    0.25052E-06   -0.78278E-06   544   0.427E-02    0.484E-03
DAV:   2    -0.173135389158E+03   -0.29530E-05   -0.14864E-05   636   0.459E-02
 235 F= -.17313539E+03 E0= -.17309086E+03  d E =-.907965E-05
       N       E                     dE             d eps       ncg     rms          rms(c)
DAV:   1    -0.173135386353E+03   -0.14802E-06   -0.78505E-06   544   0.435E-02    0.512E-03
DAV:   2    -0.173135389457E+03   -0.31032E-05   -0.16235E-05   644   0.465E-02
 236 F= -.17313539E+03 E0= -.17309089E+03  d E =-.937790E-05
       N       E                     dE             d eps       ncg     rms          rms(c)
DAV:   1    -0.173135386280E+03    0.73678E-07   -0.84172E-06   544   0.439E-02    0.533E-03
DAV:   2    -0.173135389544E+03   -0.32644E-05   -0.17270E-05   640   0.482E-02
 237 F= -.17313539E+03 E0= -.17309086E+03  d E =-.946541E-05
       N       E                     dE             d eps       ncg     rms          rms(c)
DAV:   1    -0.173135386400E+03   -0.11974E-06   -0.90132E-06   568   0.459E-02    0.561E-03
DAV:   2    -0.173135390000E+03   -0.36005E-05   -0.17159E-05   624   0.499E-02
 238 F= -.17313539E+03 E0= -.17309089E+03  d E =-.992122E-05
       N       E                     dE             d eps       ncg     rms          rms(c)
DAV:   1    -0.173135386405E+03   -0.57398E-08   -0.90919E-06   544   0.468E-02    0.597E-03
DAV:   2    -0.173135390416E+03   -0.40111E-05   -0.18571E-05   608   0.531E-02
 239 F= -.17313539E+03 E0= -.17309087E+03  d E =-.103376E-04
       N       E                     dE             d eps       ncg     rms          rms(c)
DAV:   1    -0.173135386497E+03   -0.92246E-07   -0.10062E-05   560   0.501E-02    0.646E-03
DAV:   2    -0.173135391290E+03   -0.47923E-05   -0.19878E-05   608   0.572E-02
 240 F= -.17313539E+03 E0= -.17309089E+03  d E =-.112110E-04
       N       E                     dE             d eps       ncg     rms          rms(c)
DAV:   1    -0.173135386509E+03   -0.11491E-07   -0.10993E-05   544   0.530E-02    0.679E-03
DAV:   2    -0.173135391674E+03   -0.51651E-05   -0.21859E-05   608   0.599E-02
 241 F= -.17313539E+03 E0= -.17309087E+03  d E =-.115953E-04
       N       E                     dE             d eps       ncg     rms          rms(c)
DAV:   1    -0.173135386578E+03   -0.68905E-07   -0.12163E-05   544   0.561E-02    0.735E-03
DAV:   2    -0.173135392859E+03   -0.62813E-05   -0.24463E-05   616   0.652E-02
 242 F= -.17313539E+03 E0= -.17309089E+03  d E =-.127805E-04
       N       E                     dE             d eps       ncg     rms          rms(c)
DAV:   1    -0.173135386590E+03   -0.12437E-07   -0.13796E-05   552   0.600E-02    0.764E-03
DAV:   2    -0.173135393114E+03   -0.65233E-05   -0.26733E-05   608   0.672E-02
 243 F= -.17313539E+03 E0= -.17309088E+03  d E =-.130348E-04
       N       E                     dE             d eps       ncg     rms          rms(c)
DAV:   1    -0.173135386680E+03   -0.89521E-07   -0.15186E-05   560   0.627E-02    0.832E-03
DAV:   2    -0.173135394940E+03   -0.82601E-05   -0.31009E-05   732   0.740E-02
 244 F= -.17313539E+03 E0= -.17309090E+03  d E =-.148611E-04
       N       E                     dE             d eps       ncg     rms          rms(c)
DAV:   1    -0.173135386664E+03    0.15438E-07   -0.18099E-05   656   0.683E-02    0.854E-03
DAV:   2    -0.173135395042E+03   -0.83776E-05   -0.36048E-05   908   0.751E-02
 245 F= -.17313540E+03 E0= -.17309088E+03  d E =-.149632E-04
       N       E                     dE             d eps       ncg     rms          rms(c)
DAV:   1    -0.173135386689E+03   -0.24163E-07   -0.20003E-05   652   0.707E-02    0.944E-03
DAV:   2    -0.173135399159E+03   -0.12471E-04   -0.58694E-05  1264   0.853E-02    0.406E-02
DAV:   3    -0.173135386558E+03    0.12601E-04   -0.36587E-05  1044   0.832E-02    0.111E-02
DAV:   4    -0.173135385731E+03    0.82767E-06   -0.74123E-06   552   0.246E-02
 246 F= -.17313539E+03 E0= -.17309086E+03  d E =-.565192E-05
       N       E                     dE             d eps       ncg     rms          rms(c)
DAV:   1    -0.173135410651E+03   -0.24093E-04   -0.41309E-03  1088   0.312E-01    0.800E-02
DAV:   2    -0.173136440827E+03   -0.10302E-02   -0.56887E-03  2152   0.700E-01    0.402E-01
DAV:   3    -0.173135367754E+03    0.10731E-02   -0.41918E-03  2176   0.596E-01    0.484E-02
DAV:   4    -0.173135390388E+03   -0.22634E-04   -0.36232E-04  1824   0.149E-01    0.403E-02
DAV:   5    -0.173135382651E+03    0.77371E-05   -0.69909E-05  1296   0.963E-02
 247 F= -.17313538E+03 E0= -.17309079E+03  d E =-.257216E-05
       N       E                     dE             d eps       ncg     rms          rms(c)
DAV:   1    -0.173135393069E+03   -0.26810E-05   -0.11255E-03  1088   0.132E-01    0.246E-02
DAV:   2    -0.173135514693E+03   -0.12162E-03   -0.73871E-04  2160   0.242E-01    0.135E-01
DAV:   3    -0.173135391013E+03    0.12368E-03   -0.47372E-04  2160   0.207E-01    0.193E-02
DAV:   4    -0.173135391558E+03   -0.54554E-06   -0.26312E-05   920   0.441E-02
 248 F= -.17313539E+03 E0= -.17309082E+03  d E =-.890725E-05
