<?xml version="1.0" encoding="ISO-8859-1"?>
<modeling>
 <generator>
  <i name="program" type="string">vasp </i>
  <i name="version" type="string">5.4.4.18Apr17-6-g9f103f2a35  </i>
  <i name="subversion" type="string">(build Jul 11 2019 11:52:51) complex            parallel </i>
  <i name="platform" type="string">LinuxIFC </i>
  <i name="date" type="string">2023 11 29 </i>
  <i name="time" type="string">17:45:35 </i>
 </generator>
 <incar>
  <i type="int" name="ISTART">     0</i>
  <i type="string" name="PREC">normal</i>
  <i type="int" name="IBRION">     2</i>
  <i name="EDIFF">      0.00001000</i>
  <i name="EDIFFG">     -0.01000000</i>
  <i type="int" name="NSW">   500</i>
  <i type="int" name="ISIF">     3</i>
  <i name="POTIM">      0.50000000</i>
  <i type="int" name="ISMEAR">     0</i>
  <i name="SIGMA">      0.10000000</i>
  <i name="PSTRESS">      0.00000000</i>
  <i type="logical" name="LWAVE"> F  </i>
  <i type="logical" name="LCHARG"> F  </i>
  <v type="int" name="KPOINT_BSE">    -1     0     0     0</v>
 </incar>
 <structure name="primitive_cell" >
  <crystal>
   <varray name="basis" >
    <v>       6.29442600       0.00000000       0.00000000 </v>
    <v>       0.00000000       8.00158500       0.00000000 </v>
    <v>       0.00000000       0.00000000       5.14385100 </v>
   </varray>
   <i name="volume">    259.07203428 </i>
   <varray name="rec_basis" >
    <v>       0.15887072       0.00000000       0.00000000 </v>
    <v>       0.00000000       0.12497524       0.00000000 </v>
    <v>       0.00000000       0.00000000       0.19440688 </v>
   </varray>
  </crystal>
  <varray name="positions" >
   <v>       0.22401000       0.04455000       0.21103000 </v>
   <v>       0.15026000       0.25010000      -0.01924000 </v>
   <v>       0.00012000       0.00012000      -0.49988000 </v>
   <v>      -0.49988000       0.00012000       0.00012000 </v>
   <v>       0.27623000      -0.04431000      -0.28897000 </v>
   <v>       0.34994000      -0.24990000       0.48076000 </v>
   <v>       0.46841000      -0.24988000       0.10342000 </v>
   <v>       0.03183000       0.25012000      -0.39658000 </v>
   <v>      -0.03161000      -0.24990000       0.39680000 </v>
   <v>      -0.46819000       0.25010000      -0.10320000 </v>
   <v>      -0.27601000       0.04453000       0.28919000 </v>
   <v>       0.22399000       0.45567000       0.21101000 </v>
   <v>      -0.15004000      -0.24988000       0.01946000 </v>
   <v>      -0.34972000       0.25012000      -0.48054000 </v>
   <v>      -0.22379000      -0.04433000      -0.21081000 </v>
   <v>       0.00012000      -0.49988000      -0.49988000 </v>
   <v>      -0.49988000      -0.49988000       0.00012000 </v>
   <v>      -0.27599000       0.45569000       0.28921000 </v>
   <v>       0.27621000      -0.45547000      -0.28899000 </v>
   <v>      -0.22377000      -0.45545000      -0.21079000 </v>
  </varray>
 </structure>
 <varray name="primitive_index" >
  <v type="int" >        1 </v>
  <v type="int" >       14 </v>
  <v type="int" >       15 </v>
  <v type="int" >       18 </v>
  <v type="int" >        4 </v>
  <v type="int" >       11 </v>
  <v type="int" >        9 </v>
  <v type="int" >        8 </v>
  <v type="int" >        7 </v>
  <v type="int" >       10 </v>
  <v type="int" >        3 </v>
  <v type="int" >        5 </v>
  <v type="int" >       13 </v>
  <v type="int" >       12 </v>
  <v type="int" >        2 </v>
  <v type="int" >       17 </v>
  <v type="int" >       16 </v>
  <v type="int" >       19 </v>
  <v type="int" >       20 </v>
  <v type="int" >        6 </v>
 </varray>
 <kpoints>
  <generation param="Gamma">
   <v type="int" name="divisions">       2        2        2 </v>
   <v name="usershift">      0.00000000       0.00000000       0.00000000 </v>
   <v name="genvec1">      0.50000000       0.00000000       0.00000000 </v>
   <v name="genvec2">      0.00000000       0.50000000       0.00000000 </v>
   <v name="genvec3">      0.00000000       0.00000000       0.50000000 </v>
   <v name="shift">      0.00000000       0.00000000       0.00000000 </v>
  </generation>
  <varray name="kpointlist" >
   <v>       0.00000000       0.00000000       0.00000000 </v>
   <v>       0.50000000       0.00000000       0.00000000 </v>
   <v>       0.00000000       0.50000000       0.00000000 </v>
   <v>       0.50000000       0.50000000       0.00000000 </v>
   <v>       0.00000000       0.00000000       0.50000000 </v>
   <v>       0.50000000       0.00000000       0.50000000 </v>
   <v>       0.00000000       0.50000000       0.50000000 </v>
   <v>       0.50000000       0.50000000       0.50000000 </v>
  </varray>
  <varray name="weights" >
   <v>       0.12500000 </v>
   <v>       0.12500000 </v>
   <v>       0.12500000 </v>
   <v>       0.12500000 </v>
   <v>       0.12500000 </v>
   <v>       0.12500000 </v>
   <v>       0.12500000 </v>
   <v>       0.12500000 </v>
  </varray>
 </kpoints>
 <parameters>
  <separator name="general" >
   <i type="string" name="SYSTEM">unknown system</i>
   <i type="logical" name="LCOMPAT"> F  </i>
  </separator>
  <separator name="electronic" >
   <i type="string" name="PREC">normal</i>
   <i name="ENMAX">    267.88200000</i>
   <i name="ENAUG">    511.36800000</i>
   <i name="EDIFF">      0.00001000</i>
   <i type="int" name="IALGO">    38</i>
   <i type="int" name="IWAVPR">    11</i>
   <i type="int" name="NBANDS">    68</i>
   <i name="NELECT">    109.00000000</i>
   <i type="int" name="TURBO">     0</i>
   <i type="int" name="IRESTART">     0</i>
   <i type="int" name="NREBOOT">     0</i>
   <i type="int" name="NMIN">     0</i>
   <i name="EREF">      0.00000000</i>
   <separator name="electronic smearing" >
    <i type="int" name="ISMEAR">     0</i>
    <i name="SIGMA">      0.10000000</i>
    <i name="KSPACING">      0.50000000</i>
    <i type="logical" name="KGAMMA"> T  </i>
   </separator>
   <separator name="electronic projectors" >
    <i type="logical" name="LREAL"> F  </i>
    <v name="ROPT">      0.00000000      0.00000000</v>
    <i type="int" name="LMAXPAW">  -100</i>
    <i type="int" name="LMAXMIX">     2</i>
    <i type="logical" name="NLSPLINE"> F  </i>
   </separator>
   <separator name="electronic startup" >
    <i type="int" name="ISTART">     0</i>
    <i type="int" name="ICHARG">     2</i>
    <i type="int" name="INIWAV">     1</i>
   </separator>
   <separator name="electronic spin" >
    <i type="int" name="ISPIN">     1</i>
    <i type="logical" name="LNONCOLLINEAR"> F  </i>
    <v name="MAGMOM">      1.00000000      1.00000000      1.00000000      1.00000000      1.00000000      1.00000000      1.00000000      1.00000000      1.00000000      1.00000000      1.00000000      1.00000000      1.00000000      1.00000000      1.00000000      1.00000000      1.00000000      1.00000000      1.00000000      1.00000000
</v>
    <i name="NUPDOWN">     -1.00000000</i>
    <i type="logical" name="LSORBIT"> F  </i>
    <v name="SAXIS">      0.00000000      0.00000000      1.00000000</v>
    <i type="logical" name="LSPIRAL"> F  </i>
    <v name="QSPIRAL">      0.00000000      0.00000000      0.00000000</v>
    <i type="logical" name="LZEROZ"> F  </i>
   </separator>
   <separator name="electronic exchange-correlation" >
    <i type="logical" name="LASPH"> F  </i>
    <i type="logical" name="LMETAGGA"> F  </i>
   </separator>
   <separator name="electronic convergence" >
    <i type="int" name="NELM">    60</i>
    <i type="int" name="NELMDL">    -5</i>
    <i type="int" name="NELMIN">     2</i>
    <i name="ENINI">    267.88200000</i>
    <separator name="electronic convergence detail" >
     <i type="logical" name="LDIAG"> T  </i>
     <i type="logical" name="LSUBROT"> F  </i>
     <i name="WEIMIN">      0.00100000</i>
     <i name="EBREAK">      0.00000004</i>
     <i name="DEPER">      0.30000000</i>
     <i type="int" name="NRMM">     4</i>
     <i name="TIME">      0.40000000</i>
    </separator>
   </separator>
   <separator name="electronic mixer" >
    <i name="AMIX">      0.40000000</i>
    <i name="BMIX">      1.00000000</i>
    <i name="AMIN">      0.10000000</i>
    <i name="AMIX_MAG">      1.60000000</i>
    <i name="BMIX_MAG">      1.00000000</i>
    <separator name="electronic mixer details" >
     <i type="int" name="IMIX">     4</i>
     <i type="logical" name="MIXFIRST"> F  </i>
     <i type="int" name="MAXMIX">   -45</i>
     <i name="WC">    100.00000000</i>
     <i type="int" name="INIMIX">     1</i>
     <i type="int" name="MIXPRE">     1</i>
     <i type="int" name="MREMOVE">     5</i>
    </separator>
   </separator>
   <separator name="electronic dipolcorrection" >
    <i type="logical" name="LDIPOL"> F  </i>
    <i type="logical" name="LMONO"> F  </i>
    <i type="int" name="IDIPOL">     0</i>
    <i name="EPSILON">      1.00000000</i>
    <v name="DIPOL">   -100.00000000   -100.00000000   -100.00000000</v>
    <i name="EFIELD">      0.00000000</i>
   </separator>
  </separator>
  <separator name="grids" >
   <i type="int" name="NGX">    28</i>
   <i type="int" name="NGY">    32</i>
   <i type="int" name="NGZ">    24</i>
   <i type="int" name="NGXF">    56</i>
   <i type="int" name="NGYF">    64</i>
   <i type="int" name="NGZF">    48</i>
   <i type="logical" name="ADDGRID"> F  </i>
  </separator>
  <separator name="ionic" >
   <i type="int" name="NSW">   500</i>
   <i type="int" name="IBRION">     2</i>
   <i type="int" name="MDALGO">     0</i>
   <i type="int" name="ISIF">     3</i>
   <i name="PSTRESS">      0.00000000</i>
   <i name="EDIFFG">     -0.01000000</i>
   <i type="int" name="NFREE">     1</i>
   <i name="POTIM">      0.50000000</i>
   <i name="SMASS">     -3.00000000</i>
   <i name="SCALEE">      1.00000000</i>
  </separator>
  <separator name="ionic md" >
   <i name="TEBEG">      0.00010000</i>
   <i name="TEEND">      0.00010000</i>
   <i type="int" name="NBLOCK">     1</i>
   <i type="int" name="KBLOCK">   500</i>
   <i type="int" name="NPACO">   256</i>
   <i name="APACO">     16.00000000</i>
  </separator>
  <separator name="symmetry" >
   <i type="int" name="ISYM">     2</i>
   <i name="SYMPREC">      0.00001000</i>
  </separator>
  <separator name="dos" >
   <i type="int" name="LORBIT">     0</i>
   <v name="RWIGS">     -1.00000000     -1.00000000</v>
   <i type="int" name="NEDOS">   301</i>
   <i name="EMIN">     10.00000000</i>
   <i name="EMAX">    -10.00000000</i>
   <i name="EFERMI">      0.00000000</i>
  </separator>
  <separator name="writing" >
   <i type="int" name="NWRITE">     2</i>
   <i type="logical" name="LWAVE"> F  </i>
   <i type="logical" name="LDOWNSAMPLE"> F  </i>
   <i type="logical" name="LCHARG"> F  </i>
   <i type="logical" name="LPARD"> F  </i>
   <i type="logical" name="LVTOT"> F  </i>
   <i type="logical" name="LVHAR"> F  </i>
   <i type="logical" name="LELF"> F  </i>
   <i type="logical" name="LOPTICS"> F  </i>
   <v name="STM">      0.00000000      0.00000000      0.00000000      0.00000000      0.00000000      0.00000000      0.00000000</v>
  </separator>
  <separator name="performance" >
   <i type="int" name="NPAR">     4</i>
   <i type="int" name="NSIM">     4</i>
   <i type="int" name="NBLK">    -1</i>
   <i type="logical" name="LPLANE"> T  </i>
   <i type="logical" name="LSCALAPACK"> T  </i>
   <i type="logical" name="LSCAAWARE"> F  </i>
   <i type="logical" name="LSCALU"> F  </i>
   <i type="logical" name="LASYNC"> F  </i>
   <i type="logical" name="LORBITALREAL"> F  </i>
  </separator>
  <separator name="miscellaneous" >
   <i type="int" name="IDIOT">     3</i>
   <i type="int" name="ISPECIAL">     0</i>
   <i type="logical" name="LMUSIC"> F  </i>
   <v name="POMASS">     50.94100000     55.84700000</v>
   <v name="DARWINR">      0.00000000      0.00000000</v>
   <v name="DARWINV">      1.00000000      1.00000000</v>
   <i type="logical" name="LCORR"> T  </i>
  </separator>
  <i type="logical" name="GGA_COMPAT"> T  </i>
  <i type="logical" name="LBERRY"> F  </i>
  <i type="int" name="ICORELEVEL">     0</i>
  <i type="logical" name="LDAU"> F  </i>
  <i type="int" name="I_CONSTRAINED_M">     0</i>
  <separator name="electronic exchange-correlation" >
   <i type="string" name="GGA">--</i>
   <i type="int" name="VOSKOWN">     0</i>
   <i type="logical" name="LHFCALC"> F  </i>
   <i type="string" name="PRECFOCK"></i>
   <i type="logical" name="LSYMGRAD"> F  </i>
   <i type="logical" name="LHFONE"> F  </i>
   <i type="logical" name="LRHFCALC"> F  </i>
   <i type="logical" name="LTHOMAS"> F  </i>
   <i type="logical" name="LMODELHF"> F  </i>
   <i name="ENCUT4O">     -1.00000000</i>
   <i type="int" name="EXXOEP">     0</i>
   <i type="int" name="FOURORBIT">     0</i>
   <i name="AEXX">      0.00000000</i>
   <i name="HFALPHA">      0.00000000</i>
   <i name="MCALPHA">      0.00000000</i>
   <i name="ALDAX">      1.00000000</i>
   <i name="AGGAX">      1.00000000</i>
   <i name="ALDAC">      1.00000000</i>
   <i name="AGGAC">      1.00000000</i>
   <i type="int" name="NKREDX">     1</i>
   <i type="int" name="NKREDY">     1</i>
   <i type="int" name="NKREDZ">     1</i>
   <i type="logical" name="SHIFTRED"> F  </i>
   <i type="logical" name="ODDONLY"> F  </i>
   <i type="logical" name="EVENONLY"> F  </i>
   <i type="int" name="LMAXFOCK">     0</i>
   <i type="int" name="NMAXFOCKAE">     0</i>
   <i type="logical" name="LFOCKAEDFT"> F  </i>
   <i name="HFSCREEN">      0.00000000</i>
   <i name="HFSCREENC">      0.00000000</i>
   <i type="int" name="NBANDSGWLOW">     0</i>
  </separator>
  <separator name="vdW DFT" >
   <i type="logical" name="LUSE_VDW"> F  </i>
   <i name="Zab_VDW">     -0.84910000</i>
   <i name="PARAM1">      0.12340000</i>
   <i name="PARAM2">      1.00000000</i>
   <i name="PARAM3">      0.00000000</i>
  </separator>
  <separator name="model GW" >
   <i type="int" name="MODEL_GW">     0</i>
   <i name="MODEL_EPS0">      7.77216103</i>
   <i name="MODEL_ALPHA">      1.00000000</i>
  </separator>
  <separator name="linear response parameters" >
   <i type="logical" name="LEPSILON"> F  </i>
   <i type="logical" name="LRPA"> F  </i>
   <i type="logical" name="LNABLA"> F  </i>
   <i type="logical" name="LVEL"> F  </i>
   <i type="int" name="KINTER">     0</i>
   <i name="CSHIFT">      0.10000000</i>
   <i name="OMEGAMAX">     -1.00000000</i>
   <i name="DEG_THRESHOLD">      0.00200000</i>
   <i name="RTIME">     -0.10000000</i>
   <i name="WPLASMAI">      0.00000000</i>
   <v name="DFIELD">      0.00000000      0.00000000      0.00000000</v>
   <v name="WPLASMA">      0.00000000      0.00000000      0.00000000      0.00000000      0.00000000      0.00000000      0.00000000      0.00000000      0.00000000</v>
  </separator>
  <separator name="orbital magnetization" >
   <i type="logical" name="NUCIND"> F  </i>
   <v name="MAGPOS">      0.00000000      0.00000000      0.00000000</v>
   <i type="logical" name="LNICSALL"> T  </i>
   <i type="logical" name="ORBITALMAG"> F  </i>
   <i type="logical" name="LMAGBLOCH"> F  </i>
   <i type="logical" name="LCHIMAG"> F  </i>
   <i type="logical" name="LGAUGE"> T  </i>
   <i type="int" name="MAGATOM">     0</i>
   <v name="MAGDIPOL">      0.00000000      0.00000000      0.00000000</v>
   <v name="AVECCONST">      0.00000000      0.00000000      0.00000000</v>
  </separator>
  <separator name="response functions" >
   <i type="logical" name="LADDER"> F  </i>
   <i type="logical" name="LRPAFORCE"> F  </i>
   <i type="logical" name="LFXC"> F  </i>
   <i type="logical" name="LHARTREE"> T  </i>
   <i type="int" name="IBSE">     0</i>
   <v type="int" name="KPOINT">    -1     0     0     0</v>
   <i type="logical" name="LTCTE"> F  </i>
   <i type="logical" name="LTETE"> F  </i>
   <i type="logical" name="LTRIPLET"> F  </i>
   <i type="logical" name="LFXCEPS"> F  </i>
   <i type="logical" name="LFXHEG"> F  </i>
   <i type="int" name="NATURALO">     2</i>
   <i type="logical" name="L2ORDER"> F  </i>
   <i type="logical" name="LMP2LT"> F  </i>
   <i type="logical" name="LUSEW"> F  </i>
   <i name="ENCUTGW">     -2.00000000</i>
   <i name="ENCUTGWSOFT">     -2.00000000</i>
   <i name="ENCUTLF">     -1.00000000</i>
   <i type="int" name="LMAXMP2">    -1</i>
   <i name="SCISSOR">      0.00000000</i>
   <i type="int" name="NOMEGA">     0</i>
   <i type="int" name="NOMEGAR">     0</i>
   <i type="int" name="NBANDSGW">    -1</i>
   <i type="int" name="NBANDSO">    -1</i>
   <i type="int" name="NBANDSV">    -1</i>
   <i type="int" name="NELM">     1</i>
   <i type="int" name="NELMHF">     1</i>
   <i type="int" name="DIM">     3</i>
   <i type="int" name="ANTIRES">     0</i>
   <i name="OMEGAMAX">    -30.00000000</i>
   <i name="OMEGAMIN">    -30.00000000</i>
   <i name="OMEGATL">   -200.00000000</i>
   <i type="int" name="OMEGAGRID">   140</i>
   <i name="CSHIFT">     -0.10000000</i>
   <i type="logical" name="SELFENERGY"> F  </i>
   <i type="logical" name="LSPECTRAL"> F  </i>
   <i type="logical" name="LSPECTRALGW"> F  </i>
   <i type="logical" name="LSINGLES"> F  </i>
   <i type="logical" name="LFERMIGW"> F  </i>
   <i type="logical" name="ODDONLYGW"> F  </i>
   <i type="logical" name="EVENONLYGW"> F  </i>
   <i type="int" name="NKREDLFX">     1</i>
   <i type="int" name="NKREDLFY">     1</i>
   <i type="int" name="NKREDLFZ">     1</i>
   <i type="int" name="MAXMEM">  2800</i>
   <i type="int" name="TELESCOPE">     0</i>
   <i type="int" name="TAUPAR">     1</i>
   <i type="int" name="OMEGAPAR">    -1</i>
   <i name="LAMBDA">      1.00000000</i>
  </separator>
  <separator name="External order field" >
   <i name="OFIELD_KAPPA">      0.00000000</i>
   <v name="OFIELD_K">      0.00000000      0.00000000      0.00000000</v>
   <i name="OFIELD_Q6_NEAR">      0.00000000</i>
   <i name="OFIELD_Q6_FAR">      0.00000000</i>
   <i name="OFIELD_A">      0.00000000</i>
  </separator>
 </parameters>
 <atominfo>
  <atoms>      20 </atoms>
  <types>       2 </types>
  <array name="atoms" >
   <dimension dim="1">ion</dimension>
   <field type="string">element</field>
   <field type="int">atomtype</field>
   <set>
    <rc><c>V </c><c>   1</c></rc>
    <rc><c>V </c><c>   1</c></rc>
    <rc><c>V </c><c>   1</c></rc>
    <rc><c>V </c><c>   1</c></rc>
    <rc><c>V </c><c>   1</c></rc>
    <rc><c>V </c><c>   1</c></rc>
    <rc><c>V </c><c>   1</c></rc>
    <rc><c>V </c><c>   1</c></rc>
    <rc><c>V </c><c>   1</c></rc>
    <rc><c>V </c><c>   1</c></rc>
    <rc><c>V </c><c>   1</c></rc>
    <rc><c>V </c><c>   1</c></rc>
    <rc><c>V </c><c>   1</c></rc>
    <rc><c>V </c><c>   1</c></rc>
    <rc><c>V </c><c>   1</c></rc>
    <rc><c>V </c><c>   1</c></rc>
    <rc><c>V </c><c>   1</c></rc>
    <rc><c>Fe</c><c>   2</c></rc>
    <rc><c>Fe</c><c>   2</c></rc>
    <rc><c>Fe</c><c>   2</c></rc>
   </set>
  </array>
  <array name="atomtypes" >
   <dimension dim="1">type</dimension>
   <field type="int">atomspertype</field>
   <field type="string">element</field>
   <field>mass</field>
   <field>valence</field>
   <field type="string">pseudopotential</field>
   <set>
    <rc><c>  17</c><c>V </c><c>     50.94100000</c><c>      5.00000000</c><c>  PAW_PBE V 08Apr2002                   </c></rc>
    <rc><c>   3</c><c>Fe</c><c>     55.84700000</c><c>      8.00000000</c><c>  PAW_PBE Fe 06Sep2000                  </c></rc>
   </set>
  </array>
 </atominfo>
 <structure name="initialpos" >
  <crystal>
   <varray name="basis" >
    <v>       6.29442600       0.00000000       0.00000000 </v>
    <v>       0.00000000       8.00158500       0.00000000 </v>
    <v>       0.00000000       0.00000000       5.14385100 </v>
   </varray>
   <i name="volume">    259.07203428 </i>
   <varray name="rec_basis" >
    <v>       0.15887072       0.00000000       0.00000000 </v>
    <v>       0.00000000       0.12497524       0.00000000 </v>
    <v>       0.00000000       0.00000000       0.19440688 </v>
   </varray>
  </crystal>
  <varray name="positions" >
   <v>       0.22401000       0.04455000       0.21103000 </v>
   <v>       0.77621000       0.95567000       0.78919000 </v>
   <v>       0.72399000       0.04453000       0.28919000 </v>
   <v>       0.27623000       0.95569000       0.71103000 </v>
   <v>       0.22399000       0.45567000       0.21101000 </v>
   <v>       0.77623000       0.54455000       0.78921000 </v>
   <v>       0.96839000       0.75010000       0.39680000 </v>
   <v>       0.03183000       0.25012000       0.60342000 </v>
   <v>       0.46841000       0.75012000       0.10342000 </v>
   <v>       0.53181000       0.25010000       0.89680000 </v>
   <v>       0.34994000       0.75010000       0.48076000 </v>
   <v>       0.65028000       0.25012000       0.51946000 </v>
   <v>       0.84996000       0.75012000       0.01946000 </v>
   <v>       0.15026000       0.25010000       0.98076000 </v>
   <v>       0.00012000       0.00012000       0.50012000 </v>
   <v>       0.50012000       0.50012000       0.00012000 </v>
   <v>       0.00012000       0.50012000       0.50012000 </v>
   <v>       0.50012000       0.00012000       0.00012000 </v>
   <v>       0.72401000       0.45569000       0.28921000 </v>
   <v>       0.27621000       0.54453000       0.71101000 </v>
  </varray>
 </structure>
 <calculation>
  <scstep>
   <time name="dav">    0.56    0.56</time>
   <time name="total">    0.58    0.59</time>
   <energy>
    <i name="alphaZ">    552.45267317 </i>
    <i name="ewald">  -4954.83050066 </i>
    <i name="hartreedc">  -1004.38958739 </i>
    <i name="XCdc">   -769.59312759 </i>
    <i name="pawpsdc">   5171.05454107 </i>
    <i name="pawaedc">  -4356.08836938 </i>
    <i name="eentropy">     -0.06042059 </i>
    <i name="bandstr">   1386.07008545 </i>
    <i name="atom">   4687.48422623 </i>
    <i name="e_fr_energy">    712.09952030 </i>
    <i name="e_wo_entrp">    712.15994089 </i>
    <i name="e_0_energy">    712.12973059 </i>
   </energy>
  </scstep>
  <scstep>
   <time name="dav">    0.55    0.55</time>
   <time name="total">    0.55    0.55</time>
   <energy>
    <i name="e_fr_energy">    -15.50887632 </i>
    <i name="e_wo_entrp">    -15.43965399 </i>
    <i name="e_0_energy">    -15.47426516 </i>
   </energy>
  </scstep>
  <scstep>
   <time name="dav">    0.84    0.84</time>
   <time name="total">    0.84    4.52</time>
   <energy>
    <i name="e_fr_energy">   -149.16414473 </i>
    <i name="e_wo_entrp">   -149.06516181 </i>
    <i name="e_0_energy">   -149.11465327 </i>
   </energy>
  </scstep>
  <scstep>
   <time name="dav">    0.81    4.49</time>
   <time name="total">    0.81    0.81</time>
   <energy>
    <i name="e_fr_energy">   -164.08276429 </i>
    <i name="e_wo_entrp">   -163.97749970 </i>
    <i name="e_0_energy">   -164.03013199 </i>
   </energy>
  </scstep>
  <scstep>
   <time name="dav">    0.83    0.83</time>
   <time name="total">    0.85    0.85</time>
   <energy>
    <i name="e_fr_energy">   -165.00940499 </i>
    <i name="e_wo_entrp">   -164.89489647 </i>
    <i name="e_0_energy">   -164.95215073 </i>
   </energy>
  </scstep>
  <scstep>
   <time name="dav">    0.93    0.93</time>
   <time name="total">    0.98    0.98</time>
   <energy>
    <i name="e_fr_energy">   -201.84114121 </i>
    <i name="e_wo_entrp">   -201.74798216 </i>
    <i name="e_0_energy">   -201.79456169 </i>
   </energy>
  </scstep>
  <scstep>
   <time name="dav">    0.91    0.91</time>
   <time name="total">    0.95    0.95</time>
   <energy>
    <i name="e_fr_energy">   -156.77088325 </i>
    <i name="e_wo_entrp">   -156.65115741 </i>
    <i name="e_0_energy">   -156.71102033 </i>
   </energy>
  </scstep>
  <scstep>
   <time name="dav">    0.88    0.88</time>
   <time name="total">    0.93    0.93</time>
   <energy>
    <i name="e_fr_energy">   -156.57396405 </i>
    <i name="e_wo_entrp">   -156.46906152 </i>
    <i name="e_0_energy">   -156.52151278 </i>
   </energy>
  </scstep>
  <scstep>
   <time name="dav">    0.94    0.94</time>
   <time name="total">    0.99    0.99</time>
   <energy>
    <i name="e_fr_energy">   -156.95379641 </i>
    <i name="e_wo_entrp">   -156.84854459 </i>
    <i name="e_0_energy">   -156.90117050 </i>
   </energy>
  </scstep>
  <scstep>
   <time name="dav">    0.96    0.96</time>
   <time name="total">    1.01    1.01</time>
   <energy>
    <i name="e_fr_energy">   -148.81771380 </i>
    <i name="e_wo_entrp">   -148.70667629 </i>
    <i name="e_0_energy">   -148.76219505 </i>
   </energy>
  </scstep>
  <scstep>
   <time name="dav">    0.81    0.82</time>
   <time name="total">    0.86    0.86</time>
   <energy>
    <i name="e_fr_energy">   -148.77389505 </i>
    <i name="e_wo_entrp">   -148.66444725 </i>
    <i name="e_0_energy">   -148.71917115 </i>
   </energy>
  </scstep>
  <scstep>
   <time name="dav">    0.90    0.90</time>
   <time name="total">    0.95    0.95</time>
   <energy>
    <i name="e_fr_energy">   -148.66319383 </i>
    <i name="e_wo_entrp">   -148.55509789 </i>
    <i name="e_0_energy">   -148.60914586 </i>
   </energy>
  </scstep>
  <scstep>
   <time name="dav">    0.96    0.96</time>
   <time name="total">    1.00    1.01</time>
   <energy>
    <i name="e_fr_energy">   -148.67946249 </i>
    <i name="e_wo_entrp">   -148.56916973 </i>
    <i name="e_0_energy">   -148.62431611 </i>
   </energy>
  </scstep>
  <scstep>
   <time name="dav">    0.96    0.96</time>
   <time name="total">    1.00    1.00</time>
   <energy>
    <i name="e_fr_energy">   -148.61972582 </i>
    <i name="e_wo_entrp">   -148.50956439 </i>
    <i name="e_0_energy">   -148.56464511 </i>
   </energy>
  </scstep>
  <scstep>
   <time name="dav">    0.96    0.96</time>
   <time name="total">    1.00    1.00</time>
   <energy>
    <i name="e_fr_energy">   -148.47141544 </i>
    <i name="e_wo_entrp">   -148.36508800 </i>
    <i name="e_0_energy">   -148.41825172 </i>
   </energy>
  </scstep>
  <scstep>
   <time name="dav">    0.89    0.89</time>
   <time name="total">    0.93    0.93</time>
   <energy>
    <i name="e_fr_energy">   -148.46031700 </i>
    <i name="e_wo_entrp">   -148.35288581 </i>
    <i name="e_0_energy">   -148.40660141 </i>
   </energy>
  </scstep>
  <scstep>
   <time name="dav">    0.90    0.90</time>
   <time name="total">    0.94    0.95</time>
   <energy>
    <i name="e_fr_energy">   -148.45647341 </i>
    <i name="e_wo_entrp">   -148.34779090 </i>
    <i name="e_0_energy">   -148.40213216 </i>
   </energy>
  </scstep>
  <scstep>
   <time name="dav">    0.85    0.85</time>
   <time name="total">    0.90    0.90</time>
   <energy>
    <i name="e_fr_energy">   -148.45625507 </i>
    <i name="e_wo_entrp">   -148.34829981 </i>
    <i name="e_0_energy">   -148.40227744 </i>
   </energy>
  </scstep>
  <scstep>
   <time name="dav">    0.93    0.93</time>
   <time name="total">    0.97    0.98</time>
   <energy>
    <i name="e_fr_energy">   -148.45354097 </i>
    <i name="e_wo_entrp">   -148.34532106 </i>
    <i name="e_0_energy">   -148.39943102 </i>
   </energy>
  </scstep>
  <scstep>
   <time name="dav">    0.86    0.86</time>
   <time name="total">    0.90    0.90</time>
   <energy>
    <i name="e_fr_energy">   -148.45250743 </i>
    <i name="e_wo_entrp">   -148.34408166 </i>
    <i name="e_0_energy">   -148.39829455 </i>
   </energy>
  </scstep>
  <scstep>
   <time name="dav">    0.82    0.82</time>
   <time name="total">    0.87    0.87</time>
   <energy>
    <i name="e_fr_energy">   -148.45115395 </i>
    <i name="e_wo_entrp">   -148.34317650 </i>
    <i name="e_0_energy">   -148.39716522 </i>
   </energy>
  </scstep>
  <scstep>
   <time name="dav">    0.84    0.85</time>
   <time name="total">    0.89    0.89</time>
   <energy>
    <i name="e_fr_energy">   -148.45112455 </i>
    <i name="e_wo_entrp">   -148.34302792 </i>
    <i name="e_0_energy">   -148.39707624 </i>
   </energy>
  </scstep>
  <scstep>
   <time name="dav">    0.86    0.86</time>
   <time name="total">    0.90    0.90</time>
   <energy>
    <i name="e_fr_energy">   -148.45103393 </i>
    <i name="e_wo_entrp">   -148.34291976 </i>
    <i name="e_0_energy">   -148.39697685 </i>
   </energy>
  </scstep>
  <scstep>
   <time name="dav">    0.81    0.81</time>
   <time name="total">    0.86    0.86</time>
   <energy>
    <i name="e_fr_energy">   -148.45102831 </i>
    <i name="e_wo_entrp">   -148.34297622 </i>
    <i name="e_0_energy">   -148.39700227 </i>
   </energy>
  </scstep>
  <scstep>
   <time name="dav">    0.46    0.46</time>
   <time name="total">    0.48    0.48</time>
   <energy>
    <i name="alphaZ">    552.45267317 </i>
    <i name="ewald">  -4954.83050066 </i>
    <i name="hartreedc">   -915.83161857 </i>
    <i name="XCdc">   -767.78160372 </i>
    <i name="pawpsdc">   9372.72303410 </i>
    <i name="pawaedc">  -8577.66883759 </i>
    <i name="eentropy">     -0.10807100 </i>
    <i name="bandstr">    455.10967546 </i>
    <i name="atom">   4687.48422623 </i>
    <i name="e_fr_energy">   -148.45102260 </i>
    <i name="e_wo_entrp">   -148.34295160 </i>
    <i name="e_0_energy">   -148.39698710 </i>
   </energy>
  </scstep>
  <structure>
   <crystal>
    <varray name="basis" >
     <v>       6.29442600       0.00000000       0.00000000 </v>
     <v>       0.00000000       8.00158500       0.00000000 </v>
     <v>       0.00000000       0.00000000       5.14385100 </v>
    </varray>
    <i name="volume">    259.07203428 </i>
    <varray name="rec_basis" >
     <v>       0.15887072       0.00000000       0.00000000 </v>
     <v>       0.00000000       0.12497524       0.00000000 </v>
     <v>       0.00000000       0.00000000       0.19440688 </v>
    </varray>
   </crystal>
   <varray name="positions" >
    <v>       0.22401000       0.04455000       0.21103000 </v>
    <v>       0.77621000       0.95567000       0.78919000 </v>
    <v>       0.72399000       0.04453000       0.28919000 </v>
    <v>       0.27623000       0.95569000       0.71103000 </v>
    <v>       0.22399000       0.45567000       0.21101000 </v>
    <v>       0.77623000       0.54455000       0.78921000 </v>
    <v>       0.96839000       0.75010000       0.39680000 </v>
    <v>       0.03183000       0.25012000       0.60342000 </v>
    <v>       0.46841000       0.75012000       0.10342000 </v>
    <v>       0.53181000       0.25010000       0.89680000 </v>
    <v>       0.34994000       0.75010000       0.48076000 </v>
    <v>       0.65028000       0.25012000       0.51946000 </v>
    <v>       0.84996000       0.75012000       0.01946000 </v>
    <v>       0.15026000       0.25010000       0.98076000 </v>
    <v>       0.00012000       0.00012000       0.50012000 </v>
    <v>       0.50012000       0.50012000       0.00012000 </v>
    <v>       0.00012000       0.50012000       0.50012000 </v>
    <v>       0.50012000       0.00012000       0.00012000 </v>
    <v>       0.72401000       0.45569000       0.28921000 </v>
    <v>       0.27621000       0.54453000       0.71101000 </v>
   </varray>
  </structure>
  <varray name="forces" >
   <v>       0.77136102      -1.05118441       1.22420446 </v>
   <v>      -0.77144088       1.04990053      -1.22372544 </v>
   <v>       0.51209643      -0.79790383      -1.27909532 </v>
   <v>      -0.51038940       0.79880523       1.28158266 </v>
   <v>       0.47692837       1.41319996       1.43975941 </v>
   <v>      -0.47662160      -1.41254093      -1.43916140 </v>
   <v>      -1.63257619      -0.17360035       0.80015544 </v>
   <v>       1.63145790       0.17571175      -0.80138611 </v>
   <v>      -1.49398907      -0.51855428      -0.23603809 </v>
   <v>       1.49429337       0.52115497       0.23455739 </v>
   <v>       2.91027625      -0.02479376      -0.58843118 </v>
   <v>      -2.91014383       0.02443103       0.58873707 </v>
   <v>       3.09833089       0.12413860       0.64141894 </v>
   <v>      -3.09852607      -0.12435024      -0.64219802 </v>
   <v>      -0.00141458      -0.00086920      -0.00075960 </v>
   <v>       0.00064339      -0.00144492      -0.00068230 </v>
   <v>      -0.00217405      -0.00071542      -0.00014482 </v>
   <v>      -0.00029719      -0.00083476      -0.00069867 </v>
   <v>       0.45014666       1.00951522      -1.32340339 </v>
   <v>      -0.44796144      -1.01006520       1.32530897 </v>
  </varray>
  <varray name="stress" >
   <v>     252.99949544      -4.58807663     -10.57163676 </v>
   <v>      -4.58807653     328.03859988       6.26800417 </v>
   <v>     -10.57163684       6.26800418     389.47719169 </v>
  </varray>
  <energy>
   <i name="e_fr_energy">   -148.45102260 </i>
   <i name="e_wo_entrp">   -148.39698710 </i>
   <i name="e_0_energy">     -0.10807100 </i>
  </energy>
  <time name="totalsc">   23.20   26.90</time>
 </calculation>
 <calculation>
  <scstep>
   <time name="dav">    0.57    0.57</time>
   <time name="total">    0.61    0.61</time>
   <energy>
    <i name="alphaZ">    387.01146780 </i>
    <i name="ewald">  -4424.98495428 </i>
    <i name="hartreedc">   -803.98404990 </i>
    <i name="XCdc">   -785.71414791 </i>
    <i name="pawpsdc">   9372.48732671 </i>
    <i name="pawaedc">  -8577.43017997 </i>
    <i name="eentropy">     -0.21007958 </i>
    <i name="bandstr">    -66.00628324 </i>
    <i name="atom">   4687.48422623 </i>
    <i name="e_fr_energy">   -211.34667416 </i>
    <i name="e_wo_entrp">   -211.13659457 </i>
    <i name="e_0_energy">   -211.24163436 </i>
   </energy>
  </scstep>
  <scstep>
   <time name="dav">    0.80    0.80</time>
   <time name="total">    0.84    0.84</time>
   <energy>
    <i name="e_fr_energy">   -393.20314679 </i>
    <i name="e_wo_entrp">   -393.13826617 </i>
    <i name="e_0_energy">   -393.17070648 </i>
   </energy>
  </scstep>
  <scstep>
   <time name="dav">    0.89    0.89</time>
   <time name="total">    0.94    0.94</time>
   <energy>
    <i name="e_fr_energy">   -157.87284867 </i>
    <i name="e_wo_entrp">   -157.76856130 </i>
    <i name="e_0_energy">   -157.82070498 </i>
   </energy>
  </scstep>
  <scstep>
   <time name="dav">    0.95    0.95</time>
   <time name="total">    1.00    1.00</time>
   <energy>
    <i name="e_fr_energy">   -188.06013459 </i>
    <i name="e_wo_entrp">   -187.93505605 </i>
    <i name="e_0_energy">   -187.99759532 </i>
   </energy>
  </scstep>
  <scstep>
   <time name="dav">    0.83    0.83</time>
   <time name="total">    0.88    0.88</time>
   <energy>
    <i name="e_fr_energy">   -163.53917573 </i>
    <i name="e_wo_entrp">   -163.37120312 </i>
    <i name="e_0_energy">   -163.45518943 </i>
   </energy>
  </scstep>
  <scstep>
   <time name="dav">    0.89    0.89</time>
   <time name="total">    0.93    0.93</time>
   <energy>
    <i name="e_fr_energy">   -155.34974055 </i>
    <i name="e_wo_entrp">   -155.18403322 </i>
    <i name="e_0_energy">   -155.26688689 </i>
   </energy>
  </scstep>
  <scstep>
   <time name="dav">    0.96    0.97</time>
   <time name="total">    1.01    1.01</time>
   <energy>
    <i name="e_fr_energy">   -153.98745517 </i>
    <i name="e_wo_entrp">   -153.80332593 </i>
    <i name="e_0_energy">   -153.89539055 </i>
   </energy>
  </scstep>
  <scstep>
   <time name="dav">    0.87    0.87</time>
   <time name="total">    0.92    0.92</time>
   <energy>
    <i name="e_fr_energy">   -152.06344514 </i>
    <i name="e_wo_entrp">   -151.89330313 </i>
    <i name="e_0_energy">   -151.97837414 </i>
   </energy>
  </scstep>
  <scstep>
   <time name="dav">    1.02    1.02</time>
   <time name="total">    1.07    1.07</time>
   <energy>
    <i name="e_fr_energy">   -151.57051833 </i>
    <i name="e_wo_entrp">   -151.40114016 </i>
    <i name="e_0_energy">   -151.48582925 </i>
   </energy>
  </scstep>
  <scstep>
   <time name="dav">    1.02    1.02</time>
   <time name="total">    1.07    1.07</time>
   <energy>
    <i name="e_fr_energy">   -151.39622963 </i>
    <i name="e_wo_entrp">   -151.22556806 </i>
    <i name="e_0_energy">   -151.31089885 </i>
   </energy>
  </scstep>
  <scstep>
   <time name="dav">    0.92    0.92</time>
   <time name="total">    0.96    0.96</time>
   <energy>
    <i name="e_fr_energy">   -153.77805291 </i>
    <i name="e_wo_entrp">   -153.59075170 </i>
    <i name="e_0_energy">   -153.68440230 </i>
   </energy>
  </scstep>
  <scstep>
   <time name="dav">    0.95    0.95</time>
   <time name="total">    0.99    1.00</time>
   <energy>
    <i name="e_fr_energy">   -156.14184213 </i>
    <i name="e_wo_entrp">   -155.93847530 </i>
    <i name="e_0_energy">   -156.04015872 </i>
   </energy>
  </scstep>
  <scstep>
   <time name="dav">    0.92    0.92</time>
   <time name="total">    0.97    0.97</time>
   <energy>
    <i name="e_fr_energy">   -152.43981075 </i>
    <i name="e_wo_entrp">   -152.24639853 </i>
    <i name="e_0_energy">   -152.34310464 </i>
   </energy>
  </scstep>
  <scstep>
   <time name="dav">    0.95    0.95</time>
   <time name="total">    1.00    1.00</time>
   <energy>
    <i name="e_fr_energy">   -150.61655414 </i>
    <i name="e_wo_entrp">   -150.43612439 </i>
    <i name="e_0_energy">   -150.52633926 </i>
   </energy>
  </scstep>
  <scstep>
   <time name="dav">    0.82    0.82</time>
   <time name="total">    0.87    0.87</time>
   <energy>
    <i name="e_fr_energy">   -150.54134920 </i>
    <i name="e_wo_entrp">   -150.36325856 </i>
    <i name="e_0_energy">   -150.45230388 </i>
   </energy>
  </scstep>
  <scstep>
   <time name="dav">    0.86    0.86</time>
   <time name="total">    0.91    0.91</time>
   <energy>
    <i name="e_fr_energy">   -150.44034384 </i>
    <i name="e_wo_entrp">   -150.26504202 </i>
    <i name="e_0_energy">   -150.35269293 </i>
   </energy>
  </scstep>
  <scstep>
   <time name="dav">    0.85    0.85</time>
   <time name="total">    0.90    0.90</time>
   <energy>
    <i name="e_fr_energy">   -150.43013079 </i>
    <i name="e_wo_entrp">   -150.25026034 </i>
    <i name="e_0_energy">   -150.34019557 </i>
   </energy>
  </scstep>
  <scstep>
   <time name="dav">    0.93    0.93</time>
   <time name="total">    0.98    0.98</time>
   <energy>
    <i name="e_fr_energy">   -150.43015907 </i>
    <i name="e_wo_entrp">   -150.25141825 </i>
    <i name="e_0_energy">   -150.34078866 </i>
   </energy>
  </scstep>
  <scstep>
   <time name="dav">    0.93    0.93</time>
   <time name="total">    0.97    0.97</time>
   <energy>
    <i name="e_fr_energy">   -150.43490326 </i>
    <i name="e_wo_entrp">   -150.25458099 </i>
    <i name="e_0_energy">   -150.34474213 </i>
   </energy>
  </scstep>
  <scstep>
   <time name="dav">    0.93    0.93</time>
   <time name="total">    0.97    0.97</time>
   <energy>
    <i name="e_fr_energy">   -150.41964759 </i>
    <i name="e_wo_entrp">   -150.24081009 </i>
    <i name="e_0_energy">   -150.33022884 </i>
   </energy>
  </scstep>
  <scstep>
   <time name="dav">    0.82    0.82</time>
   <time name="total">    0.87    0.87</time>
   <energy>
    <i name="e_fr_energy">   -150.41243808 </i>
    <i name="e_wo_entrp">   -150.23477992 </i>
    <i name="e_0_energy">   -150.32360900 </i>
   </energy>
  </scstep>
  <scstep>
   <time name="dav">    0.90    0.90</time>
   <time name="total">    0.95    0.95</time>
   <energy>
    <i name="e_fr_energy">   -150.41188292 </i>
    <i name="e_wo_entrp">   -150.23341126 </i>
    <i name="e_0_energy">   -150.32264709 </i>
   </energy>
  </scstep>
  <scstep>
   <time name="dav">    0.95    0.95</time>
   <time name="total">    0.99    0.99</time>
   <energy>
    <i name="e_fr_energy">   -150.41082749 </i>
    <i name="e_wo_entrp">   -150.23312981 </i>
    <i name="e_0_energy">   -150.32197865 </i>
   </energy>
  </scstep>
  <scstep>
   <time name="dav">    0.94    0.94</time>
   <time name="total">    0.98    0.98</time>
   <energy>
    <i name="e_fr_energy">   -150.41117729 </i>
    <i name="e_wo_entrp">   -150.23327347 </i>
    <i name="e_0_energy">   -150.32222538 </i>
   </energy>
  </scstep>
  <scstep>
   <time name="dav">    0.87    0.88</time>
   <time name="total">    0.92    0.92</time>
   <energy>
    <i name="e_fr_energy">   -150.41096732 </i>
    <i name="e_wo_entrp">   -150.23308392 </i>
    <i name="e_0_energy">   -150.32202562 </i>
   </energy>
  </scstep>
  <scstep>
   <time name="dav">    0.86    0.86</time>
   <time name="total">    0.90    0.90</time>
   <energy>
    <i name="e_fr_energy">   -150.41091747 </i>
    <i name="e_wo_entrp">   -150.23317156 </i>
    <i name="e_0_energy">   -150.32204451 </i>
   </energy>
  </scstep>
  <scstep>
   <time name="dav">    0.94    0.94</time>
   <time name="total">    0.99    0.99</time>
   <energy>
    <i name="e_fr_energy">   -150.41069232 </i>
    <i name="e_wo_entrp">   -150.23321716 </i>
    <i name="e_0_energy">   -150.32195474 </i>
   </energy>
  </scstep>
  <scstep>
   <time name="dav">    0.79    0.79</time>
   <time name="total">    0.84    0.84</time>
   <energy>
    <i name="e_fr_energy">   -150.41068656 </i>
    <i name="e_wo_entrp">   -150.23326610 </i>
    <i name="e_0_energy">   -150.32197633 </i>
   </energy>
  </scstep>
  <scstep>
   <time name="dav">    0.47    0.47</time>
   <time name="total">    0.49    0.49</time>
   <energy>
    <i name="alphaZ">    387.01146780 </i>
    <i name="ewald">  -4424.98495428 </i>
    <i name="hartreedc">  -1041.78331666 </i>
    <i name="XCdc">   -780.86575290 </i>
    <i name="pawpsdc">   6620.28125207 </i>
    <i name="pawaedc">  -5805.82386747 </i>
    <i name="eentropy">     -0.17739853 </i>
    <i name="bandstr">    208.44765599 </i>
    <i name="atom">   4687.48422623 </i>
    <i name="e_fr_energy">   -150.41068777 </i>
    <i name="e_wo_entrp">   -150.23328923 </i>
    <i name="e_0_energy">   -150.32198850 </i>
   </energy>
  </scstep>
  <structure>
   <crystal>
    <varray name="basis" >
     <v>       6.91556234      -0.01126414      -0.02595431 </v>
     <v>      -0.01431917       9.02537792       0.01956214 </v>
     <v>      -0.02121005       0.01257560       5.92526567 </v>
    </varray>
    <i name="volume">    369.82118047 </i>
    <varray name="rec_basis" >
     <v>       0.14460371       0.00022830       0.00051714 </v>
     <v>       0.00017959       0.11079948      -0.00023451 </v>
     <v>       0.00063281      -0.00036480       0.16877184 </v>
    </varray>
   </crystal>
   <varray name="positions" >
    <v>       0.22992198       0.03821226       0.22251145 </v>
    <v>       0.77029741       0.96199999       0.77771304 </v>
    <v>       0.72791488       0.03971933       0.27719374 </v>
    <v>       0.27231820       0.96050611       0.72304958 </v>
    <v>       0.22764534       0.46419038       0.22451308 </v>
    <v>       0.77257701       0.53603360       0.77571253 </v>
    <v>       0.95587737       0.74905334       0.40430442 </v>
    <v>       0.04433406       0.25117939       0.59590404 </v>
    <v>       0.45695955       0.74699357       0.10120627 </v>
    <v>       0.54326278       0.25324211       0.89899984 </v>
    <v>       0.37224536       0.74995052       0.47524128 </v>
    <v>       0.62797565       0.25026730       0.52498159 </v>
    <v>       0.87370668       0.75086845       0.02547568 </v>
    <v>       0.12651183       0.24935028       0.97473702 </v>
    <v>       0.00010916       0.00011476       0.50011288 </v>
    <v>       0.50012493       0.50011129       0.00011360 </v>
    <v>       0.00010334       0.50011569       0.50011864 </v>
    <v>       0.50011772       0.00011497       0.00011345 </v>
    <v>       0.72746008       0.46177651       0.27679819 </v>
    <v>       0.27277667       0.53844018       0.72343968 </v>
   </varray>
  </structure>
  <varray name="forces" >
   <v>       0.88270770      -0.46504804       0.02211116 </v>
   <v>      -0.88308761       0.46538773      -0.02273767 </v>
   <v>       0.07020992      -0.51296796      -0.53380039 </v>
   <v>      -0.07010155       0.51307266       0.53406652 </v>
   <v>       0.28675241       0.62284493       0.33463236 </v>
   <v>      -0.28690005      -0.62297883      -0.33528687 </v>
   <v>      -0.38969881       0.00014748       0.22920461 </v>
   <v>       0.39007927       0.00031416      -0.22818214 </v>
   <v>      -0.19301002       0.36464718      -0.28732250 </v>
   <v>       0.19239110      -0.36553993       0.28854537 </v>
   <v>      -0.08245694      -0.25108185       0.11423477 </v>
   <v>       0.08331706       0.25030618      -0.11660027 </v>
   <v>       0.24408091       0.07479433       0.18535086 </v>
   <v>      -0.24443296      -0.07525064      -0.18574977 </v>
   <v>      -0.00020614       0.00063561      -0.00007499 </v>
   <v>      -0.00039314       0.00182057       0.00056292 </v>
   <v>       0.00054787      -0.00042084       0.00038766 </v>
   <v>      -0.00004988      -0.00095819       0.00053258 </v>
   <v>       0.29537877       0.17659870      -0.03571286 </v>
   <v>      -0.29512793      -0.17632322       0.03583865 </v>
  </varray>
  <varray name="stress" >
   <v>    -227.22872154      -3.16191868      -5.03373708 </v>
   <v>      -3.16191871    -228.79562217       4.69354087 </v>
   <v>      -5.03373708       4.69354086    -189.62429935 </v>
  </varray>
  <energy>
   <i name="e_fr_energy">   -150.41068777 </i>
   <i name="e_wo_entrp">   -150.32198850 </i>
   <i name="e_0_energy">     -0.17739853 </i>
  </energy>
  <time name="totalsc">   27.85   27.88</time>
 </calculation>
 <calculation>
  <scstep>
   <time name="dav">    0.55    0.55</time>
   <time name="total">    0.59    0.59</time>
   <energy>
    <i name="alphaZ">    454.35702904 </i>
    <i name="ewald">  -4658.57267043 </i>
    <i name="hartreedc">  -1105.54173640 </i>
    <i name="XCdc">   -771.16734240 </i>
    <i name="pawpsdc">   6620.19663457 </i>
    <i name="pawaedc">  -5805.73623874 </i>
    <i name="eentropy">     -0.13548440 </i>
    <i name="bandstr">    404.60365885 </i>
    <i name="atom">   4687.48422623 </i>
    <i name="e_fr_energy">   -174.51192369 </i>
    <i name="e_wo_entrp">   -174.37643929 </i>
    <i name="e_0_energy">   -174.44418149 </i>
   </energy>
  </scstep>
  <scstep>
   <time name="dav">    0.88    0.88</time>
   <time name="total">    0.93    0.93</time>
   <energy>
    <i name="e_fr_energy">   -319.87170394 </i>
    <i name="e_wo_entrp">   -319.77933387 </i>
    <i name="e_0_energy">   -319.82551890 </i>
   </energy>
  </scstep>
  <scstep>
   <time name="dav">    0.82    0.82</time>
   <time name="total">    0.87    0.87</time>
   <energy>
    <i name="e_fr_energy">   -256.70263650 </i>
    <i name="e_wo_entrp">   -256.58877650 </i>
    <i name="e_0_energy">   -256.64570650 </i>
   </energy>
  </scstep>
  <scstep>
   <time name="dav">    0.85    0.85</time>
   <time name="total">    0.89    0.89</time>
   <energy>
    <i name="e_fr_energy">   -162.90121421 </i>
    <i name="e_wo_entrp">   -162.76679988 </i>
    <i name="e_0_energy">   -162.83400705 </i>
   </energy>
  </scstep>
  <scstep>
   <time name="dav">    0.94    0.94</time>
   <time name="total">    1.00    1.00</time>
   <energy>
    <i name="e_fr_energy">   -155.95235815 </i>
    <i name="e_wo_entrp">   -155.81933334 </i>
    <i name="e_0_energy">   -155.88584575 </i>
   </energy>
  </scstep>
  <scstep>
   <time name="dav">    0.91    0.91</time>
   <time name="total">    0.95    0.95</time>
   <energy>
    <i name="e_fr_energy">   -159.72191578 </i>
    <i name="e_wo_entrp">   -159.57244554 </i>
    <i name="e_0_energy">   -159.64718066 </i>
   </energy>
  </scstep>
  <scstep>
   <time name="dav">    0.90    0.91</time>
   <time name="total">    0.95    0.95</time>
   <energy>
    <i name="e_fr_energy">   -155.57697751 </i>
    <i name="e_wo_entrp">   -155.43904128 </i>
    <i name="e_0_energy">   -155.50800940 </i>
   </energy>
  </scstep>
  <scstep>
   <time name="dav">    0.93    0.94</time>
   <time name="total">    0.98    0.98</time>
   <energy>
    <i name="e_fr_energy">   -154.61570082 </i>
    <i name="e_wo_entrp">   -154.47864670 </i>
    <i name="e_0_energy">   -154.54717376 </i>
   </energy>
  </scstep>
  <scstep>
   <time name="dav">    0.93    0.93</time>
   <time name="total">    0.97    0.97</time>
   <energy>
    <i name="e_fr_energy">   -155.37397444 </i>
    <i name="e_wo_entrp">   -155.23753147 </i>
    <i name="e_0_energy">   -155.30575295 </i>
   </energy>
  </scstep>
  <scstep>
   <time name="dav">    0.81    0.81</time>
   <time name="total">    0.85    0.85</time>
   <energy>
    <i name="e_fr_energy">   -155.10806851 </i>
    <i name="e_wo_entrp">   -154.97420153 </i>
    <i name="e_0_energy">   -155.04113502 </i>
   </energy>
  </scstep>
  <scstep>
   <time name="dav">    0.93    0.93</time>
   <time name="total">    0.97    0.97</time>
   <energy>
    <i name="e_fr_energy">   -154.50509381 </i>
    <i name="e_wo_entrp">   -154.37312172 </i>
    <i name="e_0_energy">   -154.43910776 </i>
   </energy>
  </scstep>
  <scstep>
   <time name="dav">    0.87    0.87</time>
   <time name="total">    0.92    0.92</time>
   <energy>
    <i name="e_fr_energy">   -154.49520024 </i>
    <i name="e_wo_entrp">   -154.36224581 </i>
    <i name="e_0_energy">   -154.42872302 </i>
   </energy>
  </scstep>
  <scstep>
   <time name="dav">    0.89    0.89</time>
   <time name="total">    0.94    0.94</time>
   <energy>
    <i name="e_fr_energy">   -154.44942954 </i>
    <i name="e_wo_entrp">   -154.31739913 </i>
    <i name="e_0_energy">   -154.38341434 </i>
   </energy>
  </scstep>
  <scstep>
   <time name="dav">    0.89    0.89</time>
   <time name="total">    0.93    0.93</time>
   <energy>
    <i name="e_fr_energy">   -154.43565508 </i>
    <i name="e_wo_entrp">   -154.30365377 </i>
    <i name="e_0_energy">   -154.36965442 </i>
   </energy>
  </scstep>
  <scstep>
   <time name="dav">    0.80    0.80</time>
   <time name="total">    0.85    0.85</time>
   <energy>
    <i name="e_fr_energy">   -154.43450370 </i>
    <i name="e_wo_entrp">   -154.30199183 </i>
    <i name="e_0_energy">   -154.36824776 </i>
   </energy>
  </scstep>
  <scstep>
   <time name="dav">    0.83    0.83</time>
   <time name="total">    0.87    0.87</time>
   <energy>
    <i name="e_fr_energy">   -154.43339251 </i>
    <i name="e_wo_entrp">   -154.30073509 </i>
    <i name="e_0_energy">   -154.36706380 </i>
   </energy>
  </scstep>
  <scstep>
   <time name="dav">    0.80    0.80</time>
   <time name="total">    0.84    0.85</time>
   <energy>
    <i name="e_fr_energy">   -154.43265302 </i>
    <i name="e_wo_entrp">   -154.30015007 </i>
    <i name="e_0_energy">   -154.36640154 </i>
   </energy>
  </scstep>
  <scstep>
   <time name="dav">    0.94    0.94</time>
   <time name="total">    0.98    0.98</time>
   <energy>
    <i name="e_fr_energy">   -154.43238981 </i>
    <i name="e_wo_entrp">   -154.30037383 </i>
    <i name="e_0_energy">   -154.36638182 </i>
   </energy>
  </scstep>
  <scstep>
   <time name="dav">    0.94    0.94</time>
   <time name="total">    0.99    0.99</time>
   <energy>
    <i name="e_fr_energy">   -154.43112318 </i>
    <i name="e_wo_entrp">   -154.29923958 </i>
    <i name="e_0_energy">   -154.36518138 </i>
   </energy>
  </scstep>
  <scstep>
   <time name="dav">    0.91    0.91</time>
   <time name="total">    0.95    0.95</time>
   <energy>
    <i name="e_fr_energy">   -154.43043554 </i>
    <i name="e_wo_entrp">   -154.29817730 </i>
    <i name="e_0_energy">   -154.36430642 </i>
   </energy>
  </scstep>
  <scstep>
   <time name="dav">    0.95    0.95</time>
   <time name="total">    0.99    0.99</time>
   <energy>
    <i name="e_fr_energy">   -154.43030683 </i>
    <i name="e_wo_entrp">   -154.29804536 </i>
    <i name="e_0_energy">   -154.36417610 </i>
   </energy>
  </scstep>
  <scstep>
   <time name="dav">    0.94    0.94</time>
   <time name="total">    0.99    0.99</time>
   <energy>
    <i name="e_fr_energy">   -154.42992042 </i>
    <i name="e_wo_entrp">   -154.29768122 </i>
    <i name="e_0_energy">   -154.36380082 </i>
   </energy>
  </scstep>
  <scstep>
   <time name="dav">    0.94    0.94</time>
   <time name="total">    0.98    0.98</time>
   <energy>
    <i name="e_fr_energy">   -154.42994824 </i>
    <i name="e_wo_entrp">   -154.29760933 </i>
    <i name="e_0_energy">   -154.36377878 </i>
   </energy>
  </scstep>
  <scstep>
   <time name="dav">    0.94    0.94</time>
   <time name="total">    0.98    0.98</time>
   <energy>
    <i name="e_fr_energy">   -154.42974427 </i>
    <i name="e_wo_entrp">   -154.29740292 </i>
    <i name="e_0_energy">   -154.36357360 </i>
   </energy>
  </scstep>
  <scstep>
   <time name="dav">    0.94    0.94</time>
   <time name="total">    0.99    0.99</time>
   <energy>
    <i name="e_fr_energy">   -154.42969647 </i>
    <i name="e_wo_entrp">   -154.29739272 </i>
    <i name="e_0_energy">   -154.36354460 </i>
   </energy>
  </scstep>
  <scstep>
   <time name="dav">    0.63    0.63</time>
   <time name="total">    0.65    0.65</time>
   <energy>
    <i name="alphaZ">    454.35702904 </i>
    <i name="ewald">  -4658.57267043 </i>
    <i name="hartreedc">   -979.33528578 </i>
    <i name="XCdc">   -774.89577074 </i>
    <i name="pawpsdc">   7572.91508623 </i>
    <i name="pawaedc">  -6766.78852200 </i>
    <i name="eentropy">     -0.13227999 </i>
    <i name="bandstr">    310.53848806 </i>
    <i name="atom">   4687.48422623 </i>
    <i name="e_fr_energy">   -154.42969939 </i>
    <i name="e_wo_entrp">   -154.29741940 </i>
    <i name="e_0_energy">   -154.36355940 </i>
   </energy>
  </scstep>
  <structure>
   <crystal>
    <varray name="basis" >
     <v>       6.62619499      -0.00601654      -0.01386304 </v>
     <v>      -0.00764833       8.54842589       0.01044877 </v>
     <v>      -0.01132898       0.00671704       5.56122983 </v>
    </varray>
    <i name="volume">    315.00566455 </i>
    <varray name="rec_basis" >
     <v>       0.15091694       0.00013465       0.00030728 </v>
     <v>       0.00010592       0.11698087      -0.00014108 </v>
     <v>       0.00037601      -0.00021946       0.17981737 </v>
    </varray>
   </crystal>
   <varray name="positions" >
    <v>       0.22740628       0.04083325       0.21784834 </v>
    <v>       0.77281337       0.95938221       0.78237433 </v>
    <v>       0.72626957       0.04169745       0.28203165 </v>
    <v>       0.27395793       0.95852575       0.71820223 </v>
    <v>       0.22607138       0.46067691       0.21905674 </v>
    <v>       0.77414997       0.53954542       0.78116661 </v>
    <v>       0.96117471       0.74949644       0.40129115 </v>
    <v>       0.03904035       0.25073103       0.59892201 </v>
    <v>       0.46182031       0.74828965       0.10211858 </v>
    <v>       0.53840104       0.25193955       0.89809317 </v>
    <v>       0.36279415       0.74999741       0.47743166 </v>
    <v>       0.63742643       0.25022131       0.52279004 </v>
    <v>       0.86362925       0.75055020       0.02299967 </v>
    <v>       0.13658990       0.24966905       0.97721598 </v>
    <v>       0.00011377       0.00011693       0.50011577 </v>
    <v>       0.50012286       0.50011488       0.00011617 </v>
    <v>       0.00011041       0.50011748       0.50011922 </v>
    <v>       0.50011870       0.00011704       0.00011609 </v>
    <v>       0.72600734       0.45925383       0.28181986 </v>
    <v>       0.27422229       0.54096422       0.71841075 </v>
   </varray>
  </structure>
  <varray name="forces" >
   <v>       0.95780490      -0.57613448       0.41951245 </v>
   <v>      -0.95716827       0.57527876      -0.41885999 </v>
   <v>       0.23847334      -0.55654363      -0.83436317 </v>
   <v>      -0.23852992       0.55668326       0.83482416 </v>
   <v>       0.38442982       0.83399596       0.70719525 </v>
   <v>      -0.38421528      -0.83370516      -0.70719795 </v>
   <v>      -0.84271387      -0.03138060       0.50062954 </v>
   <v>       0.84202352       0.03209222      -0.50171618 </v>
   <v>      -0.57547355       0.09852541      -0.47226480 </v>
   <v>       0.57620264      -0.09867002       0.47090492 </v>
   <v>       0.86924113      -0.19688000       0.10151150 </v>
   <v>      -0.86929540       0.19642451      -0.10107108 </v>
   <v>       1.23442331       0.06975299       0.28824854 </v>
   <v>      -1.23456755      -0.06854773      -0.28823306 </v>
   <v>      -0.00066192      -0.00035382       0.00092350 </v>
   <v>      -0.00105377       0.00053150       0.00067112 </v>
   <v>       0.00070618      -0.00033349      -0.00055079 </v>
   <v>      -0.00001824      -0.00042540      -0.00044839 </v>
   <v>       0.39113411       0.37707804      -0.41114584 </v>
   <v>      -0.39074120      -0.37738833       0.41143026 </v>
  </varray>
  <varray name="stress" >
   <v>     -75.66638241      -4.57314925      -9.26661956 </v>
   <v>      -4.57314923     -49.57307311       7.68523500 </v>
   <v>      -9.26661956       7.68523509      15.68574382 </v>
  </varray>
  <energy>
   <i name="e_fr_energy">   -154.42969939 </i>
   <i name="e_wo_entrp">   -154.36355940 </i>
   <i name="e_0_energy">     -0.13227999 </i>
  </energy>
  <time name="totalsc">   24.97   24.99</time>
 </calculation>
 <calculation>
  <scstep>
   <time name="dav">    0.54    0.55</time>
   <time name="total">    0.59    0.59</time>
   <energy>
    <i name="alphaZ">    456.66277944 </i>
    <i name="ewald">  -4666.10156497 </i>
    <i name="hartreedc">   -981.23567437 </i>
    <i name="XCdc">   -774.60471013 </i>
    <i name="pawpsdc">   7573.67000042 </i>
    <i name="pawaedc">  -6767.54561653 </i>
    <i name="eentropy">     -0.13153733 </i>
    <i name="bandstr">    317.34902538 </i>
    <i name="atom">   4687.48422623 </i>
    <i name="e_fr_energy">   -154.45307186 </i>
    <i name="e_wo_entrp">   -154.32153453 </i>
    <i name="e_0_energy">   -154.38730319 </i>
   </energy>
  </scstep>
  <scstep>
   <time name="dav">    0.94    0.94</time>
   <time name="total">    0.98    0.99</time>
   <energy>
    <i name="e_fr_energy">   -155.02386697 </i>
    <i name="e_wo_entrp">   -154.88998331 </i>
    <i name="e_0_energy">   -154.95692514 </i>
   </energy>
  </scstep>
  <scstep>
   <time name="dav">    0.94    0.94</time>
   <time name="total">    0.99    0.99</time>
   <energy>
    <i name="e_fr_energy">   -154.42886935 </i>
    <i name="e_wo_entrp">   -154.29728463 </i>
    <i name="e_0_energy">   -154.36307699 </i>
   </energy>
  </scstep>
  <scstep>
   <time name="dav">    0.89    0.89</time>
   <time name="total">    0.93    0.93</time>
   <energy>
    <i name="e_fr_energy">   -154.43965227 </i>
    <i name="e_wo_entrp">   -154.30868208 </i>
    <i name="e_0_energy">   -154.37416717 </i>
   </energy>
  </scstep>
  <scstep>
   <time name="dav">    0.83    0.83</time>
   <time name="total">    0.88    0.88</time>
   <energy>
    <i name="e_fr_energy">   -154.43824658 </i>
    <i name="e_wo_entrp">   -154.30810167 </i>
    <i name="e_0_energy">   -154.37317413 </i>
   </energy>
  </scstep>
  <scstep>
   <time name="dav">    0.92    0.92</time>
   <time name="total">    0.97    0.97</time>
   <energy>
    <i name="e_fr_energy">   -154.43573733 </i>
    <i name="e_wo_entrp">   -154.30440500 </i>
    <i name="e_0_energy">   -154.37007117 </i>
   </energy>
  </scstep>
  <scstep>
   <time name="dav">    0.93    0.94</time>
   <time name="total">    0.98    0.98</time>
   <energy>
    <i name="e_fr_energy">   -154.43556607 </i>
    <i name="e_wo_entrp">   -154.30445635 </i>
    <i name="e_0_energy">   -154.37001121 </i>
   </energy>
  </scstep>
  <scstep>
   <time name="dav">    0.92    0.92</time>
   <time name="total">    0.97    0.97</time>
   <energy>
    <i name="e_fr_energy">   -154.43537174 </i>
    <i name="e_wo_entrp">   -154.30429797 </i>
    <i name="e_0_energy">   -154.36983486 </i>
   </energy>
  </scstep>
  <scstep>
   <time name="dav">    0.93    0.93</time>
   <time name="total">    0.97    0.97</time>
   <energy>
    <i name="e_fr_energy">   -154.43530214 </i>
    <i name="e_wo_entrp">   -154.30425616 </i>
    <i name="e_0_energy">   -154.36977915 </i>
   </energy>
  </scstep>
  <scstep>
   <time name="dav">    0.77    0.77</time>
   <time name="total">    0.81    0.81</time>
   <energy>
    <i name="e_fr_energy">   -154.43531865 </i>
    <i name="e_wo_entrp">   -154.30434769 </i>
    <i name="e_0_energy">   -154.36983317 </i>
   </energy>
  </scstep>
  <scstep>
   <time name="dav">    0.77    0.77</time>
   <time name="total">    0.81    0.82</time>
   <energy>
    <i name="e_fr_energy">   -154.43528157 </i>
    <i name="e_wo_entrp">   -154.30424160 </i>
    <i name="e_0_energy">   -154.36976159 </i>
   </energy>
  </scstep>
  <scstep>
   <time name="dav">    0.61    0.61</time>
   <time name="total">    0.63    0.63</time>
   <energy>
    <i name="alphaZ">    456.66277944 </i>
    <i name="ewald">  -4666.10156497 </i>
    <i name="hartreedc">   -977.51927294 </i>
    <i name="XCdc">   -774.70586393 </i>
    <i name="pawpsdc">   7608.55140517 </i>
    <i name="pawaedc">  -6802.69279648 </i>
    <i name="eentropy">     -0.13103185 </i>
    <i name="bandstr">    314.01683303 </i>
    <i name="atom">   4687.48422623 </i>
    <i name="e_fr_energy">   -154.43528629 </i>
    <i name="e_wo_entrp">   -154.30425444 </i>
    <i name="e_0_energy">   -154.36977037 </i>
   </energy>
  </scstep>
  <structure>
   <crystal>
    <varray name="basis" >
     <v>       6.61732072      -0.00585561      -0.01349222 </v>
     <v>      -0.00744375       8.53379879       0.01016929 </v>
     <v>      -0.01102594       0.00653737       5.55006563 </v>
    </varray>
    <i name="volume">    313.41515955 </i>
    <varray name="rec_basis" >
     <v>       0.15111929       0.00013146       0.00030006 </v>
     <v>       0.00010341       0.11718136      -0.00013782 </v>
     <v>       0.00036718      -0.00021439       0.18017903 </v>
    </varray>
   </crystal>
   <varray name="positions" >
    <v>       0.22732588       0.04091807       0.21769625 </v>
    <v>       0.77289378       0.95929750       0.78252636 </v>
    <v>       0.72621665       0.04176162       0.28218993 </v>
    <v>       0.27401068       0.95846150       0.71804364 </v>
    <v>       0.22602133       0.46056307       0.21887838 </v>
    <v>       0.77419998       0.53965921       0.78134488 </v>
    <v>       0.96134438       0.74951064       0.40119238 </v>
    <v>       0.03887080       0.25071666       0.59902094 </v>
    <v>       0.46197581       0.74833154       0.10214814 </v>
    <v>       0.53824551       0.25189744       0.89806379 </v>
    <v>       0.36249155       0.74999914       0.47750383 </v>
    <v>       0.63772902       0.25021961       0.52271783 </v>
    <v>       0.86330681       0.75054002       0.02291939 </v>
    <v>       0.13691236       0.24967924       0.97729636 </v>
    <v>       0.00011392       0.00011700       0.50011586 </v>
    <v>       0.50012279       0.50011500       0.00011625 </v>
    <v>       0.00011063       0.50011753       0.50011923 </v>
    <v>       0.50011873       0.00011711       0.00011618 </v>
    <v>       0.72596070       0.45917228       0.28198392 </v>
    <v>       0.27426870       0.54104582       0.71824645 </v>
   </varray>
  </structure>
  <varray name="forces" >
   <v>       0.95669732      -0.58283017       0.43489947 </v>
   <v>      -0.95681507       0.58026658      -0.43468331 </v>
   <v>       0.24875256      -0.56280678      -0.84546172 </v>
   <v>      -0.24849283       0.55867549       0.84168752 </v>
   <v>       0.38671873       0.84393341       0.72106241 </v>
   <v>      -0.38625966      -0.84200541      -0.72173033 </v>
   <v>      -0.86016071      -0.03360119       0.50562723 </v>
   <v>       0.86172056       0.03308793      -0.50712168 </v>
   <v>      -0.59243612       0.08602166      -0.46929244 </v>
   <v>       0.59063992      -0.08663267       0.47474221 </v>
   <v>       0.91080232      -0.19035462       0.08939510 </v>
   <v>      -0.91113158       0.19417558      -0.09269980 </v>
   <v>       1.27249778       0.06962060       0.29612238 </v>
   <v>      -1.27315126      -0.07032380      -0.29351522 </v>
   <v>       0.00320156      -0.00205727       0.00073709 </v>
   <v>      -0.00038878       0.00364760       0.00223393 </v>
   <v>      -0.00083735       0.00146132      -0.00116914 </v>
   <v>      -0.00170098      -0.00154767      -0.00038672 </v>
   <v>       0.39466276       0.38913870      -0.42874895 </v>
   <v>      -0.39431917      -0.38786929       0.42830196 </v>
  </varray>
  <varray name="stress" >
   <v>     -70.94067806      -4.55081464      -9.16745876 </v>
   <v>      -4.55081464     -44.09311431       7.62592132 </v>
   <v>      -9.16745868       7.62592127      21.94669039 </v>
  </varray>
  <energy>
   <i name="e_fr_energy">   -154.43528629 </i>
   <i name="e_wo_entrp">   -154.36977037 </i>
   <i name="e_0_energy">     -0.13103185 </i>
  </energy>
  <time name="totalsc">   11.67   11.68</time>
 </calculation>
 <calculation>
  <scstep>
   <time name="dav">    0.54    0.54</time>
   <time name="total">    0.59    0.59</time>
   <energy>
    <i name="alphaZ">    463.80684255 </i>
    <i name="ewald">  -4695.99626217 </i>
    <i name="hartreedc">   -981.02036634 </i>
    <i name="XCdc">   -773.69026788 </i>
    <i name="pawpsdc">   7608.77810972 </i>
    <i name="pawaedc">  -6802.92094644 </i>
    <i name="eentropy">     -0.12463380 </i>
    <i name="bandstr">    337.69848657 </i>
    <i name="atom">   4687.48422623 </i>
    <i name="e_fr_energy">   -155.98481156 </i>
    <i name="e_wo_entrp">   -155.86017776 </i>
    <i name="e_0_energy">   -155.92249466 </i>
   </energy>
  </scstep>
  <scstep>
   <time name="dav">    0.93    0.93</time>
   <time name="total">    0.97    0.98</time>
   <energy>
    <i name="e_fr_energy">   -160.01660056 </i>
    <i name="e_wo_entrp">   -159.87611163 </i>
    <i name="e_0_energy">   -159.94635609 </i>
   </energy>
  </scstep>
  <scstep>
   <time name="dav">    0.94    0.94</time>
   <time name="total">    0.98    0.99</time>
   <energy>
    <i name="e_fr_energy">   -155.84244429 </i>
    <i name="e_wo_entrp">   -155.69959475 </i>
    <i name="e_0_energy">   -155.77101952 </i>
   </energy>
  </scstep>
  <scstep>
   <time name="dav">    0.85    0.85</time>
   <time name="total">    0.89    0.89</time>
   <energy>
    <i name="e_fr_energy">   -155.78248358 </i>
    <i name="e_wo_entrp">   -155.65464331 </i>
    <i name="e_0_energy">   -155.71856344 </i>
   </energy>
  </scstep>
  <scstep>
   <time name="dav">    0.86    0.86</time>
   <time name="total">    0.91    0.91</time>
   <energy>
    <i name="e_fr_energy">   -155.86969893 </i>
    <i name="e_wo_entrp">   -155.73066856 </i>
    <i name="e_0_energy">   -155.80018374 </i>
   </energy>
  </scstep>
  <scstep>
   <time name="dav">    0.87    0.87</time>
   <time name="total">    0.91    0.91</time>
   <energy>
    <i name="e_fr_energy">   -155.70040746 </i>
    <i name="e_wo_entrp">   -155.56690504 </i>
    <i name="e_0_energy">   -155.63365625 </i>
   </energy>
  </scstep>
  <scstep>
   <time name="dav">    0.83    0.83</time>
   <time name="total">    0.87    0.87</time>
   <energy>
    <i name="e_fr_energy">   -155.69779949 </i>
    <i name="e_wo_entrp">   -155.55825873 </i>
    <i name="e_0_energy">   -155.62802911 </i>
   </energy>
  </scstep>
  <scstep>
   <time name="dav">    0.93    0.93</time>
   <time name="total">    0.98    0.98</time>
   <energy>
    <i name="e_fr_energy">   -155.69800753 </i>
    <i name="e_wo_entrp">   -155.56131957 </i>
    <i name="e_0_energy">   -155.62966355 </i>
   </energy>
  </scstep>
  <scstep>
   <time name="dav">    0.93    0.93</time>
   <time name="total">    0.98    0.98</time>
   <energy>
    <i name="e_fr_energy">   -155.67817816 </i>
    <i name="e_wo_entrp">   -155.54254135 </i>
    <i name="e_0_energy">   -155.61035975 </i>
   </energy>
  </scstep>
  <scstep>
   <time name="dav">    0.91    0.91</time>
   <time name="total">    0.96    0.96</time>
   <energy>
    <i name="e_fr_energy">   -155.67735918 </i>
    <i name="e_wo_entrp">   -155.54151320 </i>
    <i name="e_0_energy">   -155.60943619 </i>
   </energy>
  </scstep>
  <scstep>
   <time name="dav">    0.81    0.82</time>
   <time name="total">    0.86    0.86</time>
   <energy>
    <i name="e_fr_energy">   -155.67749902 </i>
    <i name="e_wo_entrp">   -155.54162315 </i>
    <i name="e_0_energy">   -155.60956108 </i>
   </energy>
  </scstep>
  <scstep>
   <time name="dav">    0.80    0.80</time>
   <time name="total">    0.84    0.84</time>
   <energy>
    <i name="e_fr_energy">   -155.67663787 </i>
    <i name="e_wo_entrp">   -155.54086503 </i>
    <i name="e_0_energy">   -155.60875145 </i>
   </energy>
  </scstep>
  <scstep>
   <time name="dav">    0.85    0.85</time>
   <time name="total">    0.89    0.91</time>
   <energy>
    <i name="e_fr_energy">   -155.67671662 </i>
    <i name="e_wo_entrp">   -155.54095830 </i>
    <i name="e_0_energy">   -155.60883746 </i>
   </energy>
  </scstep>
  <scstep>
   <time name="dav">    0.87    0.87</time>
   <time name="total">    0.91    0.91</time>
   <energy>
    <i name="e_fr_energy">   -155.67660954 </i>
    <i name="e_wo_entrp">   -155.54088989 </i>
    <i name="e_0_energy">   -155.60874971 </i>
   </energy>
  </scstep>
  <scstep>
   <time name="dav">    0.91    0.91</time>
   <time name="total">    0.96    0.96</time>
   <energy>
    <i name="e_fr_energy">   -155.67660075 </i>
    <i name="e_wo_entrp">   -155.54089018 </i>
    <i name="e_0_energy">   -155.60874547 </i>
   </energy>
  </scstep>
  <scstep>
   <time name="dav">    0.54    0.55</time>
   <time name="total">    0.56    0.56</time>
   <energy>
    <i name="alphaZ">    463.80684255 </i>
    <i name="ewald">  -4695.99626217 </i>
    <i name="hartreedc">   -966.79861671 </i>
    <i name="XCdc">   -774.16068677 </i>
    <i name="pawpsdc">   7673.72759631 </i>
    <i name="pawaedc">  -6868.49817478 </i>
    <i name="eentropy">     -0.13572238 </i>
    <i name="bandstr">    324.89420656 </i>
    <i name="atom">   4687.48422623 </i>
    <i name="e_fr_energy">   -155.67659117 </i>
    <i name="e_wo_entrp">   -155.54086878 </i>
    <i name="e_0_energy">   -155.60872997 </i>
   </energy>
  </scstep>
  <structure>
   <crystal>
    <varray name="basis" >
     <v>       6.45983590      -0.01945957      -0.04143187 </v>
     <v>      -0.02487240       8.44471794       0.03951896 </v>
     <v>      -0.03397530       0.02543190       5.65719924 </v>
    </varray>
    <i name="volume">    308.58759455 </i>
    <varray name="rec_basis" >
     <v>       0.15481000       0.00045162       0.00092771 </v>
     <v>       0.00035333       0.11842074      -0.00053024 </v>
     <v>       0.00113132      -0.00082393       0.17677641 </v>
    </varray>
   </crystal>
   <varray name="positions" >
    <v>       0.23400144       0.03755265       0.22183143 </v>
    <v>       0.76621739       0.96264934       0.77839317 </v>
    <v>       0.72808420       0.03859762       0.27483028 </v>
    <v>       0.27214558       0.96160475       0.72537508 </v>
    <v>       0.22881341       0.46539493       0.22536011 </v>
    <v>       0.77141107       0.53483746       0.77485824 </v>
    <v>       0.95490481       0.74926698       0.40560477 </v>
    <v>       0.04532010       0.25095849       0.59459613 </v>
    <v>       0.45735347       0.74857929       0.09831486 </v>
    <v>       0.54285622       0.25164749       0.90193903 </v>
    <v>       0.36988034       0.74902199       0.47789169 </v>
    <v>       0.63033810       0.25121617       0.52230414 </v>
    <v>       0.87317432       0.75094636       0.02563385 </v>
    <v>       0.12704048       0.24926921       0.97460193 </v>
    <v>       0.00013434       0.00010617       0.50012129 </v>
    <v>       0.50012058       0.50013309       0.00013338 </v>
    <v>       0.00010407       0.50012474       0.50010994 </v>
    <v>       0.50010737       0.00010889       0.00011273 </v>
    <v>       0.72877194       0.46153898       0.27786560 </v>
    <v>       0.27146077       0.53868540       0.72236234 </v>
   </varray>
  </structure>
  <varray name="forces" >
   <v>       0.65872908      -0.37805276       0.47268696 </v>
   <v>      -0.65855732       0.37649539      -0.47179133 </v>
   <v>       0.30048578      -0.36508322      -0.49283941 </v>
   <v>      -0.29859543       0.36427007       0.49462224 </v>
   <v>       0.28956772       0.56145542       0.53411856 </v>
   <v>      -0.28976677      -0.55989875      -0.53254268 </v>
   <v>      -0.84831067       0.09046665       0.34851005 </v>
   <v>       0.84622778      -0.08943743      -0.35035391 </v>
   <v>      -0.46260421       0.03319152      -0.25894235 </v>
   <v>       0.46356709      -0.03256887       0.25988350 </v>
   <v>       0.72710825      -0.16234693       0.21308969 </v>
   <v>      -0.72628774       0.16145423      -0.21361148 </v>
   <v>       0.99902328       0.03575194       0.02127983 </v>
   <v>      -1.00030940      -0.03531800      -0.02309309 </v>
   <v>      -0.00327572       0.00016417      -0.00010259 </v>
   <v>       0.00055585       0.00022630      -0.00255879 </v>
   <v>       0.00044957      -0.00013257       0.00150309 </v>
   <v>       0.00151206       0.00047811      -0.00026709 </v>
   <v>       0.26618810       0.11700333      -0.38417292 </v>
   <v>      -0.26570729      -0.11811859       0.38458173 </v>
  </varray>
  <varray name="stress" >
   <v>     -61.60228402      -2.50980362      -3.20395567 </v>
   <v>      -2.50980368     -35.76587978       4.46435369 </v>
   <v>      -3.20395567       4.46435370      26.94181709 </v>
  </varray>
  <energy>
   <i name="e_fr_energy">   -155.67659117 </i>
   <i name="e_wo_entrp">   -155.60872997 </i>
   <i name="e_0_energy">     -0.13572238 </i>
  </energy>
  <time name="totalsc">   15.23   15.26</time>
 </calculation>
 <calculation>
  <scstep>
   <time name="dav">    0.54    0.54</time>
   <time name="total">    0.59    0.59</time>
   <energy>
    <i name="alphaZ">    489.26960276 </i>
    <i name="ewald">  -4789.52688603 </i>
    <i name="hartreedc">   -983.93523789 </i>
    <i name="XCdc">   -770.43056812 </i>
    <i name="pawpsdc">   7673.73308645 </i>
    <i name="pawaedc">  -6868.50151494 </i>
    <i name="eentropy">     -0.10015021 </i>
    <i name="bandstr">    402.78419591 </i>
    <i name="atom">   4687.48422623 </i>
    <i name="e_fr_energy">   -159.22324584 </i>
    <i name="e_wo_entrp">   -159.12309563 </i>
    <i name="e_0_energy">   -159.17317074 </i>
   </energy>
  </scstep>
  <scstep>
   <time name="dav">    0.89    0.89</time>
   <time name="total">    0.94    0.94</time>
   <energy>
    <i name="e_fr_energy">   -182.05886216 </i>
    <i name="e_wo_entrp">   -181.92879247 </i>
    <i name="e_0_energy">   -181.99382731 </i>
   </energy>
  </scstep>
  <scstep>
   <time name="dav">    0.90    0.90</time>
   <time name="total">    0.94    0.94</time>
   <energy>
    <i name="e_fr_energy">   -158.76542268 </i>
    <i name="e_wo_entrp">   -158.62623166 </i>
    <i name="e_0_energy">   -158.69582717 </i>
   </energy>
  </scstep>
  <scstep>
   <time name="dav">    0.81    0.81</time>
   <time name="total">    0.86    0.86</time>
   <energy>
    <i name="e_fr_energy">   -158.79887293 </i>
    <i name="e_wo_entrp">   -158.67572829 </i>
    <i name="e_0_energy">   -158.73730061 </i>
   </energy>
  </scstep>
  <scstep>
   <time name="dav">    0.89    0.89</time>
   <time name="total">    0.93    0.93</time>
   <energy>
    <i name="e_fr_energy">   -159.15442428 </i>
    <i name="e_wo_entrp">   -159.01739603 </i>
    <i name="e_0_energy">   -159.08591015 </i>
   </energy>
  </scstep>
  <scstep>
   <time name="dav">    0.94    0.94</time>
   <time name="total">    0.99    0.99</time>
   <energy>
    <i name="e_fr_energy">   -157.91898396 </i>
    <i name="e_wo_entrp">   -157.77507404 </i>
    <i name="e_0_energy">   -157.84702900 </i>
   </energy>
  </scstep>
  <scstep>
   <time name="dav">    0.83    0.83</time>
   <time name="total">    0.87    0.87</time>
   <energy>
    <i name="e_fr_energy">   -157.84975901 </i>
    <i name="e_wo_entrp">   -157.72431403 </i>
    <i name="e_0_energy">   -157.78703652 </i>
   </energy>
  </scstep>
  <scstep>
   <time name="dav">    0.85    0.85</time>
   <time name="total">    0.90    0.90</time>
   <energy>
    <i name="e_fr_energy">   -157.71201697 </i>
    <i name="e_wo_entrp">   -157.57508582 </i>
    <i name="e_0_energy">   -157.64355139 </i>
   </energy>
  </scstep>
  <scstep>
   <time name="dav">    0.78    0.79</time>
   <time name="total">    0.83    0.83</time>
   <energy>
    <i name="e_fr_energy">   -157.60663688 </i>
    <i name="e_wo_entrp">   -157.46856061 </i>
    <i name="e_0_energy">   -157.53759875 </i>
   </energy>
  </scstep>
  <scstep>
   <time name="dav">    0.91    0.91</time>
   <time name="total">    0.96    0.96</time>
   <energy>
    <i name="e_fr_energy">   -157.61584942 </i>
    <i name="e_wo_entrp">   -157.47851541 </i>
    <i name="e_0_energy">   -157.54718241 </i>
   </energy>
  </scstep>
  <scstep>
   <time name="dav">    0.93    0.93</time>
   <time name="total">    0.98    0.98</time>
   <energy>
    <i name="e_fr_energy">   -157.60618164 </i>
    <i name="e_wo_entrp">   -157.46784224 </i>
    <i name="e_0_energy">   -157.53701194 </i>
   </energy>
  </scstep>
  <scstep>
   <time name="dav">    0.92    0.92</time>
   <time name="total">    0.96    0.97</time>
   <energy>
    <i name="e_fr_energy">   -157.60270962 </i>
    <i name="e_wo_entrp">   -157.46369066 </i>
    <i name="e_0_energy">   -157.53320014 </i>
   </energy>
  </scstep>
  <scstep>
   <time name="dav">    0.93    0.93</time>
   <time name="total">    0.98    0.98</time>
   <energy>
    <i name="e_fr_energy">   -157.60240580 </i>
    <i name="e_wo_entrp">   -157.46306342 </i>
    <i name="e_0_energy">   -157.53273461 </i>
   </energy>
  </scstep>
  <scstep>
   <time name="dav">    0.85    0.85</time>
   <time name="total">    0.90    0.90</time>
   <energy>
    <i name="e_fr_energy">   -157.59966611 </i>
    <i name="e_wo_entrp">   -157.46088650 </i>
    <i name="e_0_energy">   -157.53027630 </i>
   </energy>
  </scstep>
  <scstep>
   <time name="dav">    0.79    0.79</time>
   <time name="total">    0.83    0.83</time>
   <energy>
    <i name="e_fr_energy">   -157.59972289 </i>
    <i name="e_wo_entrp">   -157.46090581 </i>
    <i name="e_0_energy">   -157.53031435 </i>
   </energy>
  </scstep>
  <scstep>
   <time name="dav">    0.84    0.84</time>
   <time name="total">    0.89    0.89</time>
   <energy>
    <i name="e_fr_energy">   -157.59964154 </i>
    <i name="e_wo_entrp">   -157.46085906 </i>
    <i name="e_0_energy">   -157.53025030 </i>
   </energy>
  </scstep>
  <scstep>
   <time name="dav">    0.86    0.86</time>
   <time name="total">    0.91    0.91</time>
   <energy>
    <i name="e_fr_energy">   -157.59948903 </i>
    <i name="e_wo_entrp">   -157.46079827 </i>
    <i name="e_0_energy">   -157.53014365 </i>
   </energy>
  </scstep>
  <scstep>
   <time name="dav">    0.85    0.85</time>
   <time name="total">    0.89    0.89</time>
   <energy>
    <i name="e_fr_energy">   -157.59949644 </i>
    <i name="e_wo_entrp">   -157.46080873 </i>
    <i name="e_0_energy">   -157.53015259 </i>
   </energy>
  </scstep>
  <scstep>
   <time name="dav">    0.78    0.78</time>
   <time name="total">    0.83    0.83</time>
   <energy>
    <i name="e_fr_energy">   -157.59947207 </i>
    <i name="e_wo_entrp">   -157.46071355 </i>
    <i name="e_0_energy">   -157.53009281 </i>
   </energy>
  </scstep>
  <scstep>
   <time name="dav">    0.44    0.44</time>
   <time name="total">    0.46    0.46</time>
   <energy>
    <i name="alphaZ">    489.26960276 </i>
    <i name="ewald">  -4789.52688603 </i>
    <i name="hartreedc">   -937.91110343 </i>
    <i name="XCdc">   -772.23698320 </i>
    <i name="pawpsdc">   7982.00521274 </i>
    <i name="pawaedc">  -7179.02894969 </i>
    <i name="eentropy">     -0.13875887 </i>
    <i name="bandstr">    362.48416706 </i>
    <i name="atom">   4687.48422623 </i>
    <i name="e_fr_energy">   -157.59947243 </i>
    <i name="e_wo_entrp">   -157.46071356 </i>
[...]
       <r>    7.3612    0.0000 </r>
       <r>    7.4260    0.0000 </r>
       <r>    7.4906    0.0000 </r>
       <r>    7.5813    0.0000 </r>
       <r>    7.6638    0.0000 </r>
       <r>    7.7345    0.0000 </r>
       <r>    7.9057    0.0000 </r>
       <r>    7.9265    0.0000 </r>
      </set>
      <set comment="kpoint 8">
       <r>    2.0709    1.0000 </r>
       <r>    2.1405    1.0000 </r>
       <r>    2.2307    1.0000 </r>
       <r>    2.4228    1.0000 </r>
       <r>    2.8580    1.0000 </r>
       <r>    2.8980    1.0000 </r>
       <r>    3.0485    1.0000 </r>
       <r>    3.0719    1.0000 </r>
       <r>    3.0927    1.0000 </r>
       <r>    3.1350    1.0000 </r>
       <r>    3.3040    1.0000 </r>
       <r>    3.4403    1.0000 </r>
       <r>    3.4793    1.0000 </r>
       <r>    3.6342    1.0000 </r>
       <r>    3.7556    1.0000 </r>
       <r>    3.8596    1.0000 </r>
       <r>    3.8926    1.0000 </r>
       <r>    3.8991    1.0000 </r>
       <r>    3.9610    1.0000 </r>
       <r>    4.1031    1.0000 </r>
       <r>    4.1983    1.0000 </r>
       <r>    4.3523    1.0000 </r>
       <r>    4.4122    1.0000 </r>
       <r>    4.5638    1.0000 </r>
       <r>    4.6372    1.0000 </r>
       <r>    4.7043    1.0000 </r>
       <r>    4.8487    1.0000 </r>
       <r>    4.9420    1.0000 </r>
       <r>    4.9597    1.0000 </r>
       <r>    5.0343    1.0000 </r>
       <r>    5.0757    1.0000 </r>
       <r>    5.1114    1.0000 </r>
       <r>    5.1558    1.0000 </r>
       <r>    5.1951    1.0000 </r>
       <r>    5.2220    1.0000 </r>
       <r>    5.3583    1.0000 </r>
       <r>    5.4540    1.0000 </r>
       <r>    5.5799    1.0000 </r>
       <r>    5.6028    1.0000 </r>
       <r>    5.6573    1.0000 </r>
       <r>    5.7216    1.0000 </r>
       <r>    5.7838    1.0000 </r>
       <r>    5.8273    1.0000 </r>
       <r>    5.9071    1.0000 </r>
       <r>    5.9543    1.0000 </r>
       <r>    6.0272    1.0000 </r>
       <r>    6.0757    1.0000 </r>
       <r>    6.2077    1.0000 </r>
       <r>    6.2783    1.0000 </r>
       <r>    6.3372    1.0000 </r>
       <r>    6.4148    1.0000 </r>
       <r>    6.5711    0.9997 </r>
       <r>    6.6383    0.9940 </r>
       <r>    6.8387    0.3730 </r>
       <r>    6.9327    0.0491 </r>
       <r>    7.0170    0.0022 </r>
       <r>    7.0901    0.0001 </r>
       <r>    7.2138    0.0000 </r>
       <r>    7.3338    0.0000 </r>
       <r>    7.3463    0.0000 </r>
       <r>    7.4171    0.0000 </r>
       <r>    7.5222    0.0000 </r>
       <r>    7.6312    0.0000 </r>
       <r>    7.7189    0.0000 </r>
       <r>    7.7589    0.0000 </r>
       <r>    7.9340    0.0000 </r>
       <r>    8.0643    0.0000 </r>
       <r>    8.1479    0.0000 </r>
      </set>
     </set>
    </set>
   </array>
  </eigenvalues>
  <separator name="orbital magnetization" >
   <v name="MAGDIPOLOUT">      0.00000000      0.00000000      0.00000000</v>
  </separator>
  <dos>
   <i name="efermi">      6.81578183 </i>
   <total>
    <array>
     <dimension dim="1">gridpoints</dimension>
     <dimension dim="2">spin</dimension>
     <field>energy</field>
     <field>total</field>
     <field>integrated</field>
     <set>
      <set comment="spin 1">
       <r>    -1.2597     0.0000     0.0000 </r>
       <r>    -1.2250     0.0000     0.0000 </r>
       <r>    -1.1902     0.0000     0.0000 </r>
       <r>    -1.1555     0.0000     0.0000 </r>
       <r>    -1.1207     0.0000     0.0000 </r>
       <r>    -1.0860     0.0000     0.0000 </r>
       <r>    -1.0513     0.0000     0.0000 </r>
       <r>    -1.0165     0.0000     0.0000 </r>
       <r>    -0.9818     0.0000     0.0000 </r>
       <r>    -0.9470     0.0000     0.0000 </r>
       <r>    -0.9123     0.0000     0.0000 </r>
       <r>    -0.8776     0.0000     0.0000 </r>
       <r>    -0.8428     0.0000     0.0000 </r>
       <r>    -0.8081     0.0000     0.0000 </r>
       <r>    -0.7733     0.0000     0.0000 </r>
       <r>    -0.7386     0.0000     0.0000 </r>
       <r>    -0.7039     0.0000     0.0000 </r>
       <r>    -0.6691     0.0000     0.0000 </r>
       <r>    -0.6344     0.0000     0.0000 </r>
       <r>    -0.5996     0.0000     0.0000 </r>
       <r>    -0.5649     0.0001     0.0000 </r>
       <r>    -0.5302     0.0004     0.0000 </r>
       <r>    -0.4954     0.0026     0.0001 </r>
       <r>    -0.4607     0.0130     0.0006 </r>
       <r>    -0.4259     0.0513     0.0023 </r>
       <r>    -0.3912     0.1592     0.0079 </r>
       <r>    -0.3564     0.3897     0.0214 </r>
       <r>    -0.3217     0.7532     0.0476 </r>
       <r>    -0.2870     1.1488     0.0875 </r>
       <r>    -0.2522     1.3831     0.1355 </r>
       <r>    -0.2175     1.3144     0.1812 </r>
       <r>    -0.1827     0.9859     0.2155 </r>
       <r>    -0.1480     0.5837     0.2357 </r>
       <r>    -0.1133     0.2728     0.2452 </r>
       <r>    -0.0785     0.1006     0.2487 </r>
       <r>    -0.0438     0.0293     0.2497 </r>
       <r>    -0.0090     0.0067     0.2500 </r>
       <r>     0.0257     0.0012     0.2500 </r>
       <r>     0.0604     0.0002     0.2500 </r>
       <r>     0.0952     0.0000     0.2500 </r>
       <r>     0.1299     0.0002     0.2500 </r>
       <r>     0.1647     0.0016     0.2501 </r>
       <r>     0.1994     0.0083     0.2504 </r>
       <r>     0.2341     0.0351     0.2516 </r>
       <r>     0.2689     0.1169     0.2556 </r>
       <r>     0.3036     0.3070     0.2663 </r>
       <r>     0.3384     0.6367     0.2884 </r>
       <r>     0.3731     1.0449     0.3247 </r>
       <r>     0.4079     1.3655     0.3722 </r>
       <r>     0.4426     1.4535     0.4227 </r>
       <r>     0.4773     1.3528     0.4697 </r>
       <r>     0.5121     1.2966     0.5147 </r>
       <r>     0.5468     1.4970     0.5667 </r>
       <r>     0.5816     1.9380     0.6340 </r>
       <r>     0.6163     2.3812     0.7168 </r>
       <r>     0.6510     2.5651     0.8059 </r>
       <r>     0.6858     2.4150     0.8898 </r>
       <r>     0.7205     2.0907     0.9624 </r>
       <r>     0.7553     1.8265     1.0259 </r>
       <r>     0.7900     1.7045     1.0851 </r>
       <r>     0.8247     1.5956     1.1405 </r>
       <r>     0.8595     1.3394     1.1870 </r>
       <r>     0.8942     0.9363     1.2196 </r>
       <r>     0.9290     0.5278     1.2379 </r>
       <r>     0.9637     0.2402     1.2463 </r>
       <r>     0.9984     0.1042     1.2499 </r>
       <r>     1.0332     0.1018     1.2534 </r>
       <r>     1.0679     0.2426     1.2618 </r>
       <r>     1.1027     0.5790     1.2820 </r>
       <r>     1.1374     1.1386     1.3215 </r>
       <r>     1.1722     1.8292     1.3851 </r>
       <r>     1.2069     2.4268     1.4694 </r>
       <r>     1.2416     2.7146     1.5637 </r>
       <r>     1.2764     2.6711     1.6565 </r>
       <r>     1.3111     2.5085     1.7436 </r>
       <r>     1.3459     2.5020     1.8305 </r>
       <r>     1.3806     2.7860     1.9273 </r>
       <r>     1.4153     3.2965     2.0419 </r>
       <r>     1.4501     3.8349     2.1751 </r>
       <r>     1.4848     4.1524     2.3193 </r>
       <r>     1.5196     4.0734     2.4609 </r>
       <r>     1.5543     3.6429     2.5874 </r>
       <r>     1.5890     3.1451     2.6967 </r>
       <r>     1.6238     2.8941     2.7972 </r>
       <r>     1.6585     2.9428     2.8995 </r>
       <r>     1.6933     3.0076     3.0039 </r>
       <r>     1.7280     2.7418     3.0992 </r>
       <r>     1.7627     2.0824     3.1715 </r>
       <r>     1.7975     1.2812     3.2161 </r>
       <r>     1.8322     0.6365     3.2382 </r>
       <r>     1.8670     0.2779     3.2478 </r>
       <r>     1.9017     0.1953     3.2546 </r>
       <r>     1.9365     0.3812     3.2679 </r>
       <r>     1.9712     0.8914     3.2988 </r>
       <r>     2.0059     1.7572     3.3599 </r>
       <r>     2.0407     2.8564     3.4591 </r>
       <r>     2.0754     3.9354     3.5958 </r>
       <r>     2.1102     4.8113     3.7630 </r>
       <r>     2.1449     5.4914     3.9537 </r>
       <r>     2.1796     6.0250     4.1631 </r>
       <r>     2.2144     6.3345     4.3831 </r>
       <r>     2.2491     6.3205     4.6027 </r>
       <r>     2.2839     6.0753     4.8138 </r>
       <r>     2.3186     5.8663     5.0176 </r>
       <r>     2.3533     5.9073     5.2228 </r>
       <r>     2.3881     6.1738     5.4373 </r>
       <r>     2.4228     6.4099     5.6600 </r>
       <r>     2.4576     6.3187     5.8795 </r>
       <r>     2.4923     5.7832     6.0804 </r>
       <r>     2.5270     4.9298     6.2517 </r>
       <r>     2.5618     4.0544     6.3925 </r>
       <r>     2.5965     3.5193     6.5148 </r>
       <r>     2.6313     3.6043     6.6400 </r>
       <r>     2.6660     4.3646     6.7916 </r>
       <r>     2.7007     5.6727     6.9887 </r>
       <r>     2.7355     7.4182     7.2464 </r>
       <r>     2.7702     9.5782     7.5792 </r>
       <r>     2.8050    12.0393     7.9974 </r>
       <r>     2.8397    14.4316     8.4988 </r>
       <r>     2.8745    16.2459     9.0632 </r>
       <r>     2.9092    17.1361     9.6585 </r>
       <r>     2.9439    17.1553    10.2545 </r>
       <r>     2.9787    16.7947    10.8379 </r>
       <r>     3.0134    16.7393    11.4195 </r>
       <r>     3.0482    17.3713    12.0230 </r>
       <r>     3.0829    18.4508    12.6640 </r>
       <r>     3.1176    19.3989    13.3379 </r>
       <r>     3.1524    19.8885    14.0288 </r>
       <r>     3.1871    20.0270    14.7246 </r>
       <r>     3.2219    20.0097    15.4198 </r>
       <r>     3.2566    19.8191    16.1083 </r>
       <r>     3.2913    19.3619    16.7809 </r>
       <r>     3.3261    18.7735    17.4331 </r>
       <r>     3.3608    18.3811    18.0717 </r>
       <r>     3.3956    18.2968    18.7074 </r>
       <r>     3.4303    18.2064    19.3399 </r>
       <r>     3.4650    17.7533    19.9566 </r>
       <r>     3.4998    17.0729    20.5498 </r>
       <r>     3.5345    16.7623    21.1321 </r>
       <r>     3.5693    17.3066    21.7333 </r>
       <r>     3.6040    18.6613    22.3817 </r>
       <r>     3.6388    20.4117    23.0908 </r>
       <r>     3.6735    22.1894    23.8617 </r>
       <r>     3.7082    23.8290    24.6895 </r>
       <r>     3.7430    25.2316    25.5661 </r>
       <r>     3.7777    26.2754    26.4789 </r>
       <r>     3.8125    26.9102    27.4138 </r>
       <r>     3.8472    27.2709    28.3612 </r>
       <r>     3.8819    27.6752    29.3227 </r>
       <r>     3.9167    28.4625    30.3115 </r>
       <r>     3.9514    29.6720    31.3423 </r>
       <r>     3.9862    30.7770    32.4115 </r>
       <r>     4.0209    30.8565    33.4835 </r>
       <r>     4.0556    29.2483    34.4996 </r>
       <r>     4.0904    26.1741    35.4089 </r>
       <r>     4.1251    22.7223    36.1983 </r>
       <r>     4.1599    20.0940    36.8964 </r>
       <r>     4.1946    18.7723    37.5486 </r>
       <r>     4.2293    18.4685    38.1902 </r>
       <r>     4.2641    18.8124    38.8437 </r>
       <r>     4.2988    19.7891    39.5312 </r>
       <r>     4.3336    21.3681    40.2736 </r>
       <r>     4.3683    23.0795    41.0754 </r>
       <r>     4.4031    24.3553    41.9215 </r>
       <r>     4.4378    25.0943    42.7933 </r>
       <r>     4.4725    25.5618    43.6813 </r>
       <r>     4.5073    25.9725    44.5836 </r>
       <r>     4.5420    26.4896    45.5039 </r>
       <r>     4.5768    27.3320    46.4534 </r>
       <r>     4.6115    28.4940    47.4433 </r>
       <r>     4.6462    29.5142    48.4687 </r>
       <r>     4.6810    29.8046    49.5041 </r>
       <r>     4.7157    29.1760    50.5177 </r>
       <r>     4.7505    27.9950    51.4903 </r>
       <r>     4.7852    26.9551    52.4267 </r>
       <r>     4.8199    26.7098    53.3547 </r>
       <r>     4.8547    27.5338    54.3112 </r>
       <r>     4.8894    29.1629    55.3244 </r>
       <r>     4.9242    30.9503    56.3996 </r>
       <r>     4.9589    32.3040    57.5219 </r>
       <r>     4.9936    33.0822    58.6712 </r>
       <r>     5.0284    33.5427    59.8365 </r>
       <r>     5.0631    33.8726    61.0132 </r>
       <r>     5.0979    33.8746    62.1901 </r>
       <r>     5.1326    33.2640    63.3457 </r>
       <r>     5.1674    32.1836    64.4638 </r>
       <r>     5.2021    31.1531    65.5461 </r>
       <r>     5.2368    30.5209    66.6064 </r>
       <r>     5.2716    30.2478    67.6572 </r>
       <r>     5.3063    30.1836    68.7058 </r>
       <r>     5.3411    30.2225    69.7558 </r>
       <r>     5.3758    30.1883    70.8045 </r>
       <r>     5.4105    29.8574    71.8418 </r>
       <r>     5.4453    29.2010    72.8563 </r>
       <r>     5.4800    28.5433    73.8479 </r>
       <r>     5.5148    28.4348    74.8358 </r>
       <r>     5.5495    29.2297    75.8512 </r>
       <r>     5.5842    30.6060    76.9145 </r>
       <r>     5.6190    31.6181    78.0129 </r>
       <r>     5.6537    31.5148    79.1078 </r>
       <r>     5.6885    30.4950    80.1672 </r>
       <r>     5.7232    29.4591    81.1906 </r>
       <r>     5.7579    29.1012    82.2016 </r>
       <r>     5.7927    29.4121    83.2234 </r>
       <r>     5.8274    29.9096    84.2625 </r>
       <r>     5.8622    30.0973    85.3081 </r>
       <r>     5.8969    29.7497    86.3417 </r>
       <r>     5.9316    29.0175    87.3498 </r>
       <r>     5.9664    28.3815    88.3358 </r>
       <r>     6.0011    28.3502    89.3207 </r>
       <r>     6.0359    28.9754    90.3273 </r>
       <r>     6.0706    29.6617    91.3578 </r>
       <r>     6.1054    29.6264    92.3870 </r>
       <r>     6.1401    28.6378    93.3819 </r>
       <r>     6.1748    27.2586    94.3289 </r>
       <r>     6.2096    26.3230    95.2434 </r>
       <r>     6.2443    26.1783    96.1529 </r>
       <r>     6.2791    26.4000    97.0700 </r>
       <r>     6.3138    26.2003    97.9802 </r>
       <r>     6.3485    25.1575    98.8542 </r>
       <r>     6.3833    23.6164    99.6747 </r>
       <r>     6.4180    22.4150   100.4534 </r>
       <r>     6.4528    22.2527   101.2265 </r>
       <r>     6.4875    23.2305   102.0335 </r>
       <r>     6.5222    24.7409   102.8930 </r>
       <r>     6.5570    25.7257   103.7868 </r>
       <r>     6.5917    25.3378   104.6670 </r>
       <r>     6.6265    23.5891   105.4865 </r>
       <r>     6.6612    21.2846   106.2260 </r>
       <r>     6.6959    19.2896   106.8961 </r>
       <r>     6.7307    17.9768   107.5207 </r>
       <r>     6.7654    17.3328   108.1228 </r>
       <r>     6.8002    17.3128   108.7243 </r>
       <r>     6.8349    17.8898   109.3458 </r>
       <r>     6.8697    18.8409   110.0003 </r>
       <r>     6.9044    19.6751   110.6839 </r>
       <r>     6.9391    19.8868   111.3747 </r>
       <r>     6.9739    19.3618   112.0474 </r>
       <r>     7.0086    18.5639   112.6923 </r>
       <r>     7.0434    18.2282   113.3256 </r>
       <r>     7.0781    18.7290   113.9762 </r>
       <r>     7.1128    19.6934   114.6604 </r>
       <r>     7.1476    20.3184   115.3663 </r>
       <r>     7.1823    20.1478   116.0662 </r>
       <r>     7.2171    19.4944   116.7435 </r>
       <r>     7.2518    19.1091   117.4074 </r>
       <r>     7.2865    19.5336   118.0860 </r>
       <r>     7.3213    20.7114   118.8055 </r>
       <r>     7.3560    22.0841   119.5727 </r>
       <r>     7.3908    23.1098   120.3756 </r>
       <r>     7.4255    23.7376   121.2002 </r>
       <r>     7.4602    24.2633   122.0432 </r>
       <r>     7.4950    24.7577   122.9033 </r>
       <r>     7.5297    24.9044   123.7685 </r>
       <r>     7.5645    24.4746   124.6187 </r>
       <r>     7.5992    23.7305   125.4432 </r>
       <r>     7.6340    23.2114   126.2495 </r>
       <r>     7.6687    23.2097   127.0559 </r>
       <r>     7.7034    23.5153   127.8728 </r>
       <r>     7.7382    23.6129   128.6931 </r>
       <r>     7.7729    23.1453   129.4972 </r>
       <r>     7.8077    22.2974   130.2718 </r>
       <r>     7.8424    21.6858   131.0252 </r>
       <r>     7.8771    21.6574   131.7776 </r>
       <r>     7.9119    21.6974   132.5314 </r>
       <r>     7.9466    20.7994   133.2540 </r>
       <r>     7.9814    18.4840   133.8962 </r>
       <r>     8.0161    15.2548   134.4261 </r>
       <r>     8.0508    12.0553   134.8449 </r>
       <r>     8.0856     9.4949   135.1748 </r>
       <r>     8.1203     7.5885   135.4384 </r>
       <r>     8.1551     6.0036   135.6470 </r>
       <r>     8.1898     4.4524   135.8017 </r>
       <r>     8.2245     2.9267   135.9033 </r>
       <r>     8.2593     1.6344   135.9601 </r>
       <r>     8.2940     0.7543   135.9863 </r>
       <r>     8.3288     0.2829   135.9962 </r>
       <r>     8.3635     0.0853   135.9991 </r>
       <r>     8.3982     0.0205   135.9998 </r>
       <r>     8.4330     0.0039   136.0000 </r>
       <r>     8.4677     0.0006   136.0000 </r>
       <r>     8.5025     0.0001   136.0000 </r>
       <r>     8.5372     0.0000   136.0000 </r>
       <r>     8.5720     0.0000   136.0000 </r>
       <r>     8.6067     0.0000   136.0000 </r>
       <r>     8.6414     0.0000   136.0000 </r>
       <r>     8.6762     0.0000   136.0000 </r>
       <r>     8.7109     0.0000   136.0000 </r>
       <r>     8.7457     0.0000   136.0000 </r>
       <r>     8.7804     0.0000   136.0000 </r>
       <r>     8.8151     0.0000   136.0000 </r>
       <r>     8.8499     0.0000   136.0000 </r>
       <r>     8.8846     0.0000   136.0000 </r>
       <r>     8.9194     0.0000   136.0000 </r>
       <r>     8.9541     0.0000   136.0000 </r>
       <r>     8.9888     0.0000   136.0000 </r>
       <r>     9.0236     0.0000   136.0000 </r>
       <r>     9.0583     0.0000   136.0000 </r>
       <r>     9.0931     0.0000   136.0000 </r>
       <r>     9.1278     0.0000   136.0000 </r>
       <r>     9.1625     0.0000   136.0000 </r>
      </set>
     </set>
    </array>
   </total>
  </dos>
 </calculation>
 <structure name="finalpos" >
  <crystal>
   <varray name="basis" >
    <v>       4.90504033       1.00812651      -0.03314988 </v>
    <v>       1.40252686       8.03223922      -0.39298602 </v>
    <v>      -0.02591389      -0.31665105       6.58044987 </v>
   </varray>
   <i name="volume">    249.36302251 </i>
   <varray name="rec_basis" >
    <v>       0.21146402      -0.03697049      -0.00094627 </v>
    <v>      -0.02656139       0.12943584       0.00612385 </v>
    <v>      -0.00052097       0.00754370       0.15232624 </v>
   </varray>
  </crystal>
  <varray name="positions" >
   <v>       0.41098181       0.04118305       0.32711051 </v>
   <v>       0.57314449       0.93487250       0.62219481 </v>
   <v>       0.83210301       0.09407258       0.15555500 </v>
   <v>       0.12930597       0.85744498       0.76479417 </v>
   <v>       0.38109783       0.44905240       0.23306086 </v>
   <v>       0.60816090       0.55993250       0.73040252 </v>
   <v>       0.88348927       0.73278455       0.25948527 </v>
   <v>       0.09227237       0.25961435       0.68532517 </v>
   <v>       0.30437217       0.77153627       0.09893973 </v>
   <v>       0.67168257       0.20958547       0.84655366 </v>
   <v>       0.46251231       0.68503618       0.42374673 </v>
   <v>       0.52266556       0.30336973       0.53397944 </v>
   <v>       0.74050233       0.81416881      -0.06124490 </v>
   <v>       0.21498756       0.26199014       0.08884789 </v>
   <v>      -0.02021120      -0.00203195       0.46544733 </v>
   <v>       0.75938572       0.49009370       0.05195408 </v>
   <v>       0.03645489       0.60672894       0.57227701 </v>
   <v>       0.28215152       0.03834386      -0.06885907 </v>
   <v>       0.92598930       0.37286335       0.38406442 </v>
   <v>       0.19119163       0.52159860       0.88860536 </v>
  </varray>
 </structure>
</modeling>
