unknown system                          
           1
     6.294426    0.000000    0.000000
     0.000000    8.001585    0.000000
     0.000000    0.000000    5.143851
   V    Fe
  17   3
Direct configuration=     1
   0.22401000  0.04455000  0.21103000
   0.77621000  0.95567000  0.78919000
   0.72399000  0.04453000  0.28919000
   0.27623000  0.95569000  0.71103000
   0.22399000  0.45567000  0.21101000
   0.77623000  0.54455000  0.78921000
   0.96839000  0.75010000  0.39680000
   0.03183000  0.25012000  0.60342000
   0.46841000  0.75012000  0.10342000
   0.53181000  0.25010000  0.89680000
   0.34994000  0.75010000  0.48076000
   0.65028000  0.25012000  0.51946000
   0.84996000  0.75012000  0.01946000
   0.15026000  0.25010000  0.98076000
   0.00012000  0.00012000  0.50012000
   0.50012000  0.50012000  0.00012000
   0.00012000  0.50012000  0.50012000
   0.50012000  0.00012000  0.00012000
   0.72401000  0.45569000  0.28921000
   0.27621000  0.54453000  0.71101000
unknown system                          
           1
     6.915562   -0.011264   -0.025954
    -0.014319    9.025378    0.019562
    -0.021210    0.012576    5.925266
   V    Fe
  17   3
Direct configuration=     2
   0.22992198  0.03821226  0.22251145
   0.77029741  0.96199999  0.77771304
   0.72791488  0.03971933  0.27719374
   0.27231820  0.96050611  0.72304958
   0.22764534  0.46419038  0.22451308
   0.77257701  0.53603360  0.77571253
   0.95587737  0.74905334  0.40430442
   0.04433406  0.25117939  0.59590404
   0.45695955  0.74699357  0.10120627
   0.54326278  0.25324211  0.89899984
   0.37224536  0.74995052  0.47524128
   0.62797565  0.25026730  0.52498159
   0.87370668  0.75086845  0.02547568
   0.12651183  0.24935028  0.97473702
   0.00010916  0.00011476  0.50011288
   0.50012493  0.50011129  0.00011360
   0.00010334  0.50011569  0.50011864
   0.50011772  0.00011497  0.00011345
   0.72746008  0.46177651  0.27679819
   0.27277667  0.53844018  0.72343968
unknown system                          
           1
     6.626195   -0.006017   -0.013863
    -0.007648    8.548426    0.010449
    -0.011329    0.006717    5.561230
   V    Fe
  17   3
Direct configuration=     3
   0.22740628  0.04083325  0.21784834
   0.77281337  0.95938221  0.78237433
   0.72626957  0.04169745  0.28203165
   0.27395793  0.95852575  0.71820223
   0.22607138  0.46067691  0.21905674
   0.77414997  0.53954542  0.78116661
   0.96117471  0.74949644  0.40129115
   0.03904035  0.25073103  0.59892201
   0.46182031  0.74828965  0.10211858
   0.53840104  0.25193955  0.89809317
   0.36279415  0.74999741  0.47743166
   0.63742643  0.25022131  0.52279004
   0.86362925  0.75055020  0.02299967
   0.13658990  0.24966905  0.97721598
   0.00011377  0.00011693  0.50011577
   0.50012286  0.50011488  0.00011617
   0.00011041  0.50011748  0.50011922
   0.50011870  0.00011704  0.00011609
   0.72600734  0.45925383  0.28181986
   0.27422229  0.54096422  0.71841075
unknown system                          
           1
     6.617321   -0.005856   -0.013492
    -0.007444    8.533799    0.010169
    -0.011026    0.006537    5.550066
   V    Fe
  17   3
Direct configuration=     4
   0.22732588  0.04091807  0.21769625
   0.77289378  0.95929750  0.78252636
   0.72621665  0.04176162  0.28218993
   0.27401068  0.95846150  0.71804364
   0.22602133  0.46056307  0.21887838
   0.77419998  0.53965921  0.78134488
   0.96134438  0.74951064  0.40119238
   0.03887080  0.25071666  0.59902094
   0.46197581  0.74833154  0.10214814
   0.53824551  0.25189744  0.89806379
   0.36249155  0.74999914  0.47750383
   0.63772902  0.25021961  0.52271783
   0.86330681  0.75054002  0.02291939
   0.13691236  0.24967924  0.97729636
   0.00011392  0.00011700  0.50011586
   0.50012279  0.50011500  0.00011625
   0.00011063  0.50011753  0.50011923
   0.50011873  0.00011711  0.00011618
   0.72596070  0.45917228  0.28198392
   0.27426870  0.54104582  0.71824645
unknown system                          
           1
     6.459836   -0.019460   -0.041432
    -0.024872    8.444718    0.039519
    -0.033975    0.025432    5.657199
   V    Fe
  17   3
Direct configuration=     5
   0.23400144  0.03755265  0.22183143
   0.76621739  0.96264934  0.77839317
   0.72808420  0.03859762  0.27483028
   0.27214558  0.96160475  0.72537508
   0.22881341  0.46539493  0.22536011
   0.77141107  0.53483746  0.77485824
   0.95490481  0.74926698  0.40560477
   0.04532010  0.25095849  0.59459613
   0.45735347  0.74857929  0.09831486
   0.54285622  0.25164749  0.90193903
   0.36988034  0.74902199  0.47789169
   0.63033810  0.25121617  0.52230414
   0.87317432  0.75094636  0.02563385
   0.12704048  0.24926921  0.97460193
   0.00013434  0.00010617  0.50012129
   0.50012058  0.50013309  0.00013338
   0.00010407  0.50012474  0.50010994
   0.50010737  0.00010889  0.00011273
   0.72877194  0.46153898  0.27786560
   0.27146077  0.53868540  0.72236234
unknown system                          
           1
     5.987381   -0.060271   -0.125251
    -0.077158    8.177475    0.127568
    -0.102823    0.082115    5.978600
   V    Fe
  17   3
Direct configuration=     6
   0.25453239  0.02735579  0.23415772
   0.74568382  0.97280502  0.76607295
   0.73372182  0.02906251  0.25324695
   0.26651504  0.97107713  0.74687578
   0.23750042  0.48001531  0.24440460
   0.76273385  0.52024775  0.75579915
   0.93515811  0.74846762  0.41849700
   0.06509654  0.25175245  0.58166754
   0.44311032  0.74933246  0.08695763
   0.55706406  0.25088731  0.91341961
   0.39258391  0.74609364  0.47916181
   0.60762788  0.25420352  0.52095764
   0.90353085  0.75220948  0.03376812
   0.09667069  0.24799476  0.96652664
   0.00019707  0.00007342  0.50013776
   0.50011412  0.50018781  0.00018347
   0.00008387  0.50014661  0.50008236
   0.50007233  0.00008393  0.00010254
   0.73738822  0.46875493  0.26574996
   0.26285468  0.53148855  0.73447077
unknown system                          
           1
     5.898799   -0.067923   -0.140966
    -0.086962    8.127369    0.144077
    -0.115732    0.092743    6.038861
   V    Fe
  17   3
Direct configuration=     7
   0.25869413  0.02538730  0.23643446
   0.74152148  0.97476552  0.76379740
   0.73480422  0.02724721  0.24946002
   0.26543381  0.97288038  0.75064825
   0.23932014  0.48283299  0.24776821
   0.76091614  0.51743603  0.75243290
   0.93118637  0.74827747  0.42072979
   0.06907422  0.25194162  0.57942840
   0.44020709  0.74947731  0.08489821
   0.55996038  0.25074093  0.91550083
   0.39717565  0.74554809  0.47946186
   0.60303475  0.25476058  0.52064385
   0.90969169  0.75247530  0.03529678
   0.09050727  0.24772666  0.96500844
   0.00020974  0.00006712  0.50014096
   0.50011301  0.50019835  0.00019219
   0.00007976  0.50015086  0.50007734
   0.50006518  0.00007907  0.00010070
   0.73911993  0.47017549  0.26360419
   0.26112505  0.53007171  0.73661524
unknown system                          
           1
     5.768599   -0.056860   -0.113140
    -0.068234    8.163335    0.163750
    -0.077678    0.102926    6.320108
   V    Fe
  17   3
Direct configuration=     8
   0.25852098  0.02396900  0.24977909
   0.74168557  0.97618866  0.75045079
   0.74726431  0.02692359  0.25051119
   0.25302791  0.97318598  0.74962461
   0.24413768  0.48506351  0.25313288
   0.75606100  0.51517743  0.74709002
   0.91809075  0.75117703  0.42560864
   0.08215796  0.24906346  0.57456335
   0.43404910  0.74715753  0.08321728
   0.56610353  0.25308655  0.91718547
   0.40774850  0.74380805  0.48576341
   0.59246788  0.25651576  0.51439110
   0.92297394  0.75287112  0.03290569
   0.07723158  0.24733429  0.96736094
   0.00019151  0.00008034  0.50014529
   0.50011569  0.50016932  0.00012595
   0.00011472  0.50013134  0.50010503
   0.50005964  0.00010589  0.00006566
   0.74013709  0.46897899  0.25609083
   0.26010068  0.53125218  0.74412279
unknown system                          
           1
     5.789578   -0.058642   -0.117624
    -0.071252    8.157540    0.160580
    -0.083810    0.101285    6.274790
   V    Fe
  17   3
Direct configuration=     9
   0.25856424  0.02419808  0.24772393
   0.74164380  0.97595880  0.75250625
   0.74521243  0.02697794  0.25035718
   0.25507088  0.97313454  0.74977441
   0.24335137  0.48470720  0.25231119
   0.75685352  0.51553824  0.74790832
   0.92025561  0.75071002  0.42485061
   0.07999508  0.24952704  0.57531925
   0.43506049  0.74752834  0.08347097
   0.56509460  0.25271159  0.91693121
   0.40601290  0.74408990  0.48479922
   0.59420256  0.25623148  0.51534779
   0.92078299  0.75280979  0.03328248
   0.07942141  0.24739505  0.96699009
   0.00019452  0.00007821  0.50014462
   0.50011515  0.50017397  0.00013614
   0.00010898  0.50013448  0.50010078
   0.50006053  0.00010158  0.00007106
   0.73996013  0.46917024  0.25724754
   0.26027881  0.53106350  0.74296696
unknown system                          
           1
     5.618697   -0.033387   -0.059220
    -0.032988    8.084285    0.145762
    -0.017276    0.088732    6.296809
   V    Fe
  17   3
Direct configuration=    10
   0.25793470  0.02560474  0.25521975
   0.74228254  0.97454803  0.74500924
   0.75275461  0.02954195  0.25019013
   0.24756647  0.97055341  0.74997579
   0.24599680  0.48291114  0.25422293
   0.75419047  0.51731162  0.74600219
   0.91089604  0.75152476  0.42424376
   0.08933688  0.24872125  0.57591065
   0.43275834  0.74823913  0.08549443
   0.56738687  0.25202940  0.91489001
   0.40986940  0.74264857  0.49099709
   0.59035585  0.25767671  0.50919617
   0.92558594  0.75287012  0.02941396
   0.07462127  0.24733883  0.97082289
   0.00015141  0.00009882  0.50014702
   0.50012163  0.50014627  0.00008837
   0.00012653  0.50012539  0.50013113
   0.50007588  0.00013495  0.00007004
   0.74112732  0.46540409  0.25451536
   0.25910106  0.53481083  0.74569909
unknown system                          
           1
     5.577100   -0.027240   -0.045003
    -0.023673    8.066453    0.142155
    -0.001080    0.085677    6.302169
   V    Fe
  17   3
Direct configuration=    11
   0.25775288  0.02595350  0.25703983
   0.74246667  0.97419825  0.74318884
   0.75464257  0.03016632  0.25013454
   0.24568791  0.96992482  0.75003962
   0.24665776  0.48246885  0.25467994
   0.75352512  0.51774835  0.74554656
   0.90854893  0.75173125  0.42411732
   0.09167957  0.24851696  0.57603339
   0.43217392  0.74841610  0.08599056
   0.56796882  0.25185946  0.91438962
   0.41082117  0.74229417  0.49249119
   0.58940639  0.25803209  0.50771327
   0.92680164  0.75288010  0.02846531
   0.07340637  0.24732985  0.97176288
   0.00014055  0.00010391  0.50014771
   0.50012344  0.50013944  0.00007676
   0.00013086  0.50012315  0.50013844
   0.50007967  0.00014313  0.00006978
   0.74143414  0.46447721  0.25384827
   0.25879162  0.53573310  0.74636618
unknown system                          
           1
     5.504441    0.009030    0.002815
     0.030145    8.094955    0.104263
     0.053822    0.055561    6.357093
   V    Fe
  17   3
Direct configuration=    12
   0.26175612  0.03009349  0.26080341
   0.73845608  0.97006641  0.73941365
   0.75702757  0.03534820  0.24455204
   0.24330403  0.96473900  0.75564375
   0.24890742  0.47720858  0.25568044
   0.75129133  0.52297176  0.74450987
   0.90011288  0.74919848  0.41835740
   0.10009698  0.25104519  0.58181570
   0.43146292  0.75183593  0.09065277
   0.56867342  0.24844872  0.90969819
   0.41253372  0.74090227  0.49932724
   0.58770901  0.25941360  0.50090724
   0.92910610  0.75279586  0.02277065
   0.07111570  0.24741418  0.97741093
   0.00010051  0.00014587  0.50015330
   0.50010613  0.50013770  0.00007502
   0.00013202  0.50012111  0.50015750
   0.50011943  0.00017319  0.00009223
   0.74482426  0.45790099  0.25320259
   0.25540437  0.54227946  0.74701608
unknown system                          
           1
     5.370527    0.075875    0.090944
     0.129335    8.147486    0.034427
     0.155008    0.000058    6.458319
   V    Fe
  17   3
Direct configuration=    13
   0.26908867  0.03769002  0.26767043
   0.73110986  0.96248483  0.73252561
   0.76148983  0.04480611  0.23437758
   0.23884352  0.95527401  0.76585768
   0.25318563  0.46753675  0.25741905
   0.74704409  0.53257550  0.74270452
   0.88450928  0.74457595  0.40792181
   0.11566544  0.25565969  0.59229240
   0.42998808  0.75815477  0.09921835
   0.57013669  0.24214642  0.90107943
   0.41563231  0.73837982  0.51177771
   0.58463839  0.26191706  0.48851129
   0.93351529  0.75258251  0.01233394
   0.06673313  0.24762729  0.98776232
   0.00002486  0.00022328  0.50016452
   0.50007386  0.50013463  0.00007206
   0.00013388  0.50011748  0.50019226
   0.50019272  0.00022823  0.00013303
   0.75128622  0.44579161  0.25190335
   0.24894825  0.55433402  0.74832265
unknown system                          
           1
     5.356793    0.108381    0.083737
     0.179252    8.129857   -0.008766
     0.146294   -0.033123    6.465392
   V    Fe
  17   3
Direct configuration=    14
   0.27279126  0.04302075  0.27250287
   0.72736962  0.95713549  0.72768894
   0.76529412  0.04949244  0.22959501
   0.23503212  0.95057136  0.77067071
   0.25590800  0.46247211  0.25683095
   0.74430227  0.53762562  0.74328653
   0.88017482  0.74419564  0.39991646
   0.12000437  0.25605947  0.60031094
   0.42989550  0.75854550  0.10495054
   0.57022595  0.24177463  0.89531043
   0.41352505  0.73632675  0.51463154
   0.58677011  0.26395350  0.48565791
   0.93410463  0.75218749  0.00893786
   0.06616597  0.24801894  0.99114757
  -0.00000842  0.00025275  0.50017513
   0.50008919  0.50014838  0.00009957
   0.00014386  0.50011511  0.50016046
   0.50021404  0.00023325  0.00014110
   0.75398527  0.43864841  0.24971859
   0.24625225  0.56146243  0.75050690
unknown system                          
           1
     5.315589    0.205899    0.062116
     0.329005    8.076968   -0.138347
     0.120152   -0.132664    6.486612
   V    Fe
  17   3
Direct configuration=    15
   0.28379750  0.05906417  0.28710494
   0.71625065  0.94103653  0.71307368
   0.77658091  0.06347994  0.21537118
   0.22372455  0.93653528  0.78498544
   0.26423982  0.44720282  0.25497395
   0.73591235  0.55285141  0.74512495
   0.86711113  0.74300703  0.37590525
   0.13308103  0.25730672  0.62436205
   0.42963197  0.75979127  0.12213574
   0.57047881  0.24058536  0.87801533
   0.40725845  0.73021342  0.52313480
   0.59311080  0.27001649  0.47715573
   0.93587323  0.75095124 -0.00124525
   0.06446414  0.24924467  0.00129825
  -0.00010934  0.00034187  0.50020740
   0.50013501  0.50018986  0.00018231
   0.00017382  0.50010745  0.50006514
   0.50027806  0.00024816  0.00016544
   0.76229941  0.41710978  0.24303439
   0.23794770  0.58295652  0.75718928
unknown system                          
           1
     5.233183    0.400935    0.018874
     0.628510    7.971192   -0.397508
     0.067869   -0.331747    6.529052
   V    Fe
  17   3
Direct configuration=    16
   0.30518552  0.09148156  0.31694092
   0.69463837  0.90850966  0.68320844
   0.79841034  0.09104586  0.18764907
   0.20185678  0.90887418  0.81288670
   0.28191725  0.41618221  0.25069760
   0.71812012  0.58378530  0.74936212
   0.84062907  0.74034724  0.32790274
   0.15958617  0.26008535  0.67244663
   0.42917345  0.76272642  0.15645053
   0.57091157  0.23776169  0.84348366
   0.39504733  0.71825382  0.53980227
   0.60547430  0.28187287  0.46048880
   0.93942601  0.74816880 -0.02158922
   0.06104634  0.25200347  0.02157752
  -0.00031778  0.00052474  0.50027477
   0.50022572  0.50027435  0.00034926
   0.00023389  0.50008898  0.49987495
   0.50040651  0.00027725  0.00021496
   0.78026525  0.37333787  0.22887698
   0.22000377  0.62663838  0.77134130
unknown system                          
           1
     5.291866    0.262045    0.049668
     0.415226    8.046518   -0.212954
     0.105101   -0.189976    6.498830
   V    Fe
  17   3
Direct configuration=    17
   0.29090169  0.06784642  0.29477877
   0.70908036  0.93222066  0.70539531
   0.78389129  0.07193603  0.20640881
   0.21639867  0.92804921  0.79400294
   0.26779123  0.43906156  0.25456903
   0.73232592  0.56096744  0.74552139
   0.85997035  0.74263452  0.36208676
   0.14023280  0.25771091  0.63820092
   0.42945723  0.75999399  0.13205331
   0.57065233  0.24041662  0.86803139
   0.40331089  0.72641488  0.52838541
   0.59709579  0.27378936  0.47190774
   0.93683315  0.75060323 -0.00710637
   0.06354059  0.24958972  0.00714072
  -0.00015910  0.00038726  0.50022245
   0.50016267  0.50021183  0.00022818
   0.00019049  0.50010676  0.50001003
   0.50031431  0.00025761  0.00017856
   0.76543601  0.40563794  0.24012041
   0.23481330  0.59440407  0.76010424
unknown system                          
           1
     5.262188    0.332286    0.034094
     0.523091    8.008423   -0.306289
     0.086272   -0.261674    6.514114
   V    Fe
  17   3
Direct configuration=    18
   0.29847082  0.07959570  0.30565599
   0.70143071  0.92043226  0.69450698
   0.79160145  0.08178365  0.19657126
   0.20867537  0.91816769  0.80390448
   0.27437458  0.42778222  0.25291059
   0.72570151  0.57221560  0.74716530
   0.85036124  0.74161880  0.34480095
   0.14984961  0.25876978  0.65551675
   0.42930219  0.76114370  0.14440304
   0.57079720  0.23930675  0.85560414
   0.39897785  0.72216116  0.53432016
   0.60148461  0.27800534  0.46597283
   0.93811894  0.74953611 -0.01443054
   0.06230376  0.25064779  0.01444160
  -0.00023560  0.00045413  0.50024732
   0.50019513  0.50024258  0.00028862
   0.00021219  0.50009944  0.49994161
   0.50036067  0.00026793  0.00019657
   0.77219302  0.38971948  0.23485550
   0.22806477  0.61028989  0.76536685
unknown system                          
           1
     5.276114    0.299326    0.041402
     0.472477    8.026298   -0.262492
     0.095107   -0.228030    6.506942
   V    Fe
  17   3
Direct configuration=    19
   0.29499972  0.07403580  0.30047385
   0.70493946  0.92601033  0.69969467
   0.78807131  0.07720745  0.20110338
   0.21221129  0.92275958  0.79934264
   0.27115447  0.43314190  0.25375926
   0.72894071  0.56687052  0.74632369
   0.85491156  0.74212904  0.35291208
   0.14529605  0.25823908  0.64739126
   0.42937106  0.76054940  0.13861154
   0.57073363  0.23988252  0.86143167
   0.40097407  0.72412671  0.53157410
   0.59946168  0.27605785  0.46871918
   0.93751039  0.75007549 -0.01099424
   0.06288912  0.25011299  0.01101623
  -0.00019884  0.00042213  0.50023528
   0.50018003  0.50022795  0.00026007
   0.00020196  0.50010327  0.49997368
   0.50033886  0.00026318  0.00018802
   0.76884905  0.39728494  0.23742507
   0.23140440  0.60273989  0.76279857
unknown system                          
           1
     5.286152    0.370661    0.016492
     0.583832    8.018509   -0.295260
     0.062257   -0.249310    6.562301
   V    Fe
  17   3
Direct configuration=    20
   0.30068471  0.08048783  0.30694724
   0.69921195  0.91955415  0.69322977
   0.79459958  0.08000597  0.19449440
   0.20568678  0.91995493  0.80595764
   0.27306224  0.42735746  0.25216359
   0.72704252  0.57263955  0.74789716
   0.85039805  0.74129824  0.34270211
   0.14980942  0.25910166  0.65760471
   0.42644166  0.76277008  0.14662101
   0.57366719  0.23768873  0.85338827
   0.39602504  0.72027108  0.52835370
   0.60441761  0.27989088  0.47194124
   0.93652557  0.74847950 -0.01273720
   0.06388984  0.25169615  0.01276167
  -0.00023083  0.00044331  0.50028491
   0.50021006  0.50024225  0.00028842
   0.00019883  0.50011371  0.49996814
   0.50032543  0.00025687  0.00016143
   0.77324195  0.39089435  0.23367137
   0.22703240  0.60909331  0.76654043
unknown system                          
           1
     5.316265    0.584666   -0.058238
     0.917899    7.995142   -0.393564
    -0.036294   -0.313150    6.728378
   V    Fe
  17   3
Direct configuration=    21
   0.31742771  0.09977678  0.32636273
   0.68234192  0.90025389  0.67383902
   0.81386548  0.08820613  0.17494302
   0.18643267  0.91173627  0.82552689
   0.27912154  0.40990719  0.24734683
   0.72101248  0.59004306  0.75264772
   0.83673771  0.73885428  0.31226925
   0.16346737  0.26164123  0.68804843
   0.41766579  0.76957388  0.17045297
   0.58245320  0.23096544  0.82945582
   0.38138073  0.70878914  0.51866319
   0.61908407  0.29130474  0.48163642
   0.93364447  0.74369620 -0.01795708
   0.06681945  0.25644052  0.01798889
  -0.00032719  0.00050811  0.50043254
   0.50029966  0.50028463  0.00037329
   0.00018869  0.50014515  0.49995178
   0.50028511  0.00023809  0.00008209
   0.78674887  0.37154290  0.22245064
   0.21359026  0.62833236  0.77772556
unknown system                          
           1
     5.306070    0.512211   -0.032937
     0.804794    8.003054   -0.360281
    -0.002928   -0.291536    6.672149
   V    Fe
  17   3
Direct configuration=    22
   0.31206975  0.09330394  0.31979918
   0.68774246  0.90672941  0.68039487
   0.80764264  0.08561691  0.18129967
   0.19265102  0.91433188  0.81916438
   0.27672153  0.41592707  0.24900444
   0.72340197  0.58403953  0.75101211
   0.84148377  0.73962621  0.32237984
   0.15872413  0.26083662  0.67793379
   0.42064147  0.76712675  0.16257433
   0.57947643  0.23338538  0.83736724
   0.38614124  0.71259684  0.52196861
   0.61431456  0.28752047  0.47832972
   0.93454571  0.74531346 -0.01619969
   0.06590091  0.25483697  0.01622910
  -0.00029406  0.00048484  0.50038375
   0.50026978  0.50027079  0.00034475
   0.00019290  0.50013436  0.49995706
   0.50029880  0.00024430  0.00010852
   0.78182636  0.37829058  0.22620924
   0.21848863  0.62162369  0.77397907
unknown system                          
           1
     5.285367    0.603304   -0.067272
     0.946062    7.953912   -0.370374
    -0.050906   -0.293094    6.678648
   V    Fe
  17   3
Direct configuration=    23
   0.31773186  0.09848450  0.32619665
   0.68205565  0.90157113  0.67400379
   0.81346691  0.08418875  0.17442240
   0.18683558  0.91575822  0.82604149
   0.27935905  0.41143563  0.24679502
   0.72080313  0.58851466  0.75320283
   0.83772814  0.73954744  0.31419929
   0.16245459  0.26094224  0.68609926
   0.41372763  0.77107079  0.16917605
   0.58639521  0.22948211  0.83077911
   0.38076665  0.70703295  0.51511200
   0.61968419  0.29306625  0.48517069
   0.93224859  0.74325601 -0.01507390
   0.06817408  0.25686889  0.01511304
  -0.00030973  0.00048575  0.50042584
   0.50030390  0.50028580  0.00035394
   0.00017228  0.50015168  0.49996562
   0.50027646  0.00023572  0.00006875
   0.78560364  0.37534374  0.22521986
   0.21476220  0.62451774  0.77496826
unknown system                          
           1
     5.223257    0.876586   -0.170279
     1.369865    7.806488   -0.400651
    -0.194842   -0.297769    6.698143
   V    Fe
  17   3
Direct configuration=    24
   0.33455862  0.11394668  0.34547520
   0.66515266  0.88617719  0.65474419
   0.83097745  0.07967417  0.15388162
   0.16935183  0.92026702  0.84658188
   0.28763898  0.39775899  0.24018603
   0.71264080  0.60214060  0.75975622
   0.82617470  0.73945455  0.28962829
   0.17392938  0.26111726  0.71062485
   0.39270803  0.78323513  0.18888882
   0.60742663  0.21744092  0.81110736
   0.36482750  0.69040171  0.49445927
   0.63560947  0.30964290  0.50577638
   0.92552050  0.73711106 -0.01174142
   0.07483226  0.26293741  0.01180926
  -0.00035593  0.00048899  0.50055179
   0.50040586  0.50032997  0.00038202
   0.00010884  0.50020481  0.49999106
   0.50020863  0.00021064 -0.00005079
   0.79722638  0.36629760  0.22229103
   0.20329740  0.63340240  0.77789695
unknown system                          
           1
     5.222408    0.972806   -0.176900
     1.520768    7.762377   -0.418838
    -0.206091   -0.313362    6.700533
   V    Fe
  17   3
Direct configuration=    25
   0.34016778  0.11471132  0.35397934
   0.65952026  0.88547722  0.64625263
   0.83472592  0.07415676  0.15132841
   0.16559625  0.92577039  0.84914021
   0.29220080  0.39802702  0.23717215
   0.70816767  0.60184171  0.76272475
   0.82637539  0.74086306  0.28992492
   0.17372024  0.25972014  0.71029575
   0.37764977  0.79019644  0.18891124
   0.62245003  0.21055820  0.81117942
   0.36178339  0.68479027  0.48821240
   0.63855744  0.31529370  0.51199496
   0.92284498  0.73566746 -0.00493921
   0.07739581  0.26433819  0.00501264
  -0.00028301  0.00042502  0.50052856
   0.50040869  0.50037201  0.00040573
   0.00010195  0.50020187  0.50000616
   0.50022573  0.00021495 -0.00008947
   0.79949990  0.36836403  0.23063548
   0.20113102  0.63125024  0.76956393
unknown system                          
           1
     5.221028    1.129258   -0.187666
     1.766130    7.690653   -0.448410
    -0.224383   -0.338714    6.704418
   V    Fe
  17   3
Direct configuration=    26
   0.34930698  0.11587413  0.36780969
   0.65033983  0.88442111  0.63244297
   0.84112180  0.06501225  0.14715723
   0.15918950  0.93489200  0.85331964
   0.29962553  0.39836276  0.23227588
   0.70088918  0.60145331  0.76754722
   0.82663130  0.74317224  0.29041294
   0.17344985  0.25742974  0.70975499
   0.35271147  0.80194095  0.18896882
   0.64732764  0.19894374  0.81127573
   0.35708652  0.67562280  0.47803313
   0.64309526  0.32452772  0.52212836
   0.91856981  0.73337323  0.00611165
   0.08149041  0.26656449 -0.00602934
  -0.00016074  0.00031840  0.50049056
   0.50041120  0.50044106  0.00044445
   0.00009088  0.50019723  0.50003070
   0.50025332  0.00022154 -0.00015231
   0.80312679  0.37173351  0.24420995
   0.19768345  0.62773779  0.75600774
unknown system                          
           1
     5.234929    1.137585   -0.134254
     1.778034    7.699874   -0.406219
    -0.161721   -0.317346    6.699800
   V    Fe
  17   3
Direct configuration=    27
   0.35363196  0.11374213  0.37270420
   0.64602936  0.88659933  0.62752333
   0.83785019  0.06879275  0.15362079
   0.16246206  0.93110099  0.84685827
   0.30264852  0.39952937  0.22948594
   0.69791542  0.60029204  0.77029226
   0.82722760  0.74596296  0.29778564
   0.17291825  0.25459491  0.70237696
   0.34511770  0.80615944  0.18412548
   0.65486845  0.19479757  0.81618999
   0.35987275  0.67359792  0.47724024
   0.64017422  0.32662720  0.52288571
   0.92277580  0.72749032  0.00472022
   0.07715697  0.27238433 -0.00460179
  -0.00008248  0.00024082  0.50046254
   0.50038136  0.50051017  0.00048020
   0.00009722  0.50020110  0.50000542
   0.50030410  0.00019301 -0.00018206
   0.80445463  0.37456763  0.25029505
   0.19643593  0.62485602  0.74997158
unknown system                          
           1
     5.263248    1.154548   -0.025449
     1.802282    7.718657   -0.320271
    -0.034073   -0.273817    6.690391
   V    Fe
  17   3
Direct configuration=    28
   0.36231327  0.10938446  0.38263538
   0.63737795  0.89105106  0.61754012
   0.83103378  0.07647830  0.16679746
   0.16928039  0.92339403  0.83368617
   0.30885197  0.40190269  0.22373527
   0.69181304  0.59792958  0.77595057
   0.82825312  0.75162445  0.31276428
   0.17202448  0.24884355  0.68738697
   0.32978445  0.81476939  0.17432520
   0.67009209  0.18633471  0.82613472
   0.36556145  0.66947358  0.47560495
   0.63421212  0.33090368  0.52444983
   0.93137979  0.71551411  0.00189214
   0.06829341  0.28423241 -0.00169716
   0.00007753  0.00008285  0.50040517
   0.50031959  0.50065078  0.00055266
   0.00011068  0.50020903  0.49995376
   0.50040810  0.00013492 -0.00024315
   0.80699683  0.38031862  0.26263708
   0.19405597  0.61900779  0.73772860
unknown system                          
           1
     5.227833    1.130843   -0.018897
     1.770744    7.647956   -0.270128
    -0.034364   -0.228104    6.679192
   V    Fe
  17   3
Direct configuration=    29
   0.36553749  0.10872160  0.38015698
   0.63423747  0.89169182  0.61993825
   0.82697672  0.07975752  0.17180525
   0.17326529  0.92009279  0.82865059
   0.31127750  0.40074818  0.22271772
   0.68927101  0.59907058  0.77684629
   0.82505111  0.75674726  0.31326811
   0.17516396  0.24370757  0.68682272
   0.32754715  0.81705441  0.16899386
   0.67232609  0.18417159  0.83149658
   0.37030634  0.67237034  0.47152146
   0.62931915  0.32802181  0.52850175
   0.93307218  0.71233376  0.00268123
   0.06668828  0.28730196 -0.00250179
   0.00006756  0.00011150  0.50041489
   0.50042739  0.50072918  0.00064488
   0.00022367  0.50023852  0.49996686
   0.50043729  0.00011972 -0.00022230
   0.80753175  0.38414953  0.26319105
   0.19351261  0.61510036  0.73734564
unknown system                          
           1
     5.198136    1.110966   -0.013403
     1.744299    7.588671   -0.228082
    -0.034608   -0.189772    6.669801
   V    Fe
  17   3
Direct configuration=    30
   0.36825116  0.10817991  0.37807740
   0.63159424  0.89221539  0.62195050
   0.82357188  0.08249712  0.17599377
   0.17660915  0.91733458  0.82443892
   0.31331881  0.39978156  0.22186838
   0.68713117  0.60002620  0.77759346
   0.82236408  0.76107124  0.31366283
   0.17779809  0.23937266  0.68637739
   0.32565593  0.81901078  0.16450492
   0.67421490  0.18231814  0.83601043
   0.37430908  0.67485031  0.46807157
   0.62519147  0.32555434  0.53192513
   0.93449308  0.70964303  0.00336169
   0.06534066  0.28989923 -0.00319468
   0.00005924  0.00013565  0.50042288
   0.50051870  0.50079520  0.00072177
   0.00031909  0.50026359  0.49997760
   0.50046191  0.00010681 -0.00020472
   0.80799392  0.38738749  0.26363286
   0.19304344  0.61179678  0.73704789
unknown system                          
           1
     5.214386    1.109328   -0.013966
     1.745780    7.596527   -0.199440
    -0.041277   -0.161434    6.730845
   V    Fe
  17   3
Direct configuration=    31
   0.37002661  0.10770674  0.37593054
   0.62988587  0.89268259  0.62405685
   0.82192322  0.08464735  0.17863207
   0.17818288  0.91517462  0.82176844
   0.31456496  0.39895615  0.22198812
   0.68579251  0.60081343  0.77736481
   0.82028365  0.76478752  0.31353502
   0.17982977  0.23561646  0.68643313
   0.32398056  0.82040528  0.16089447
   0.67586743  0.18105316  0.83965653
   0.37785178  0.67673141  0.46493915
   0.62153628  0.32368247  0.53501661
   0.93503525  0.70789360  0.00432309