  20  20   0   0
  0.1280405E+02  0.6852822E-09  0.9165572E-09  0.4256068E-09  0.5000000E-15
  1.000000000000000E-004
  CAR 
 unknown system                          
      8.62933494     -1.54491703  301      6.38226676      1.00000000
     -1.545  0.0000E+00  0.0000E+00
     -1.511  0.0000E+00  0.0000E+00
     -1.477  0.0000E+00  0.0000E+00
     -1.443  0.0000E+00  0.0000E+00
     -1.409  0.0000E+00  0.0000E+00
     -1.375  0.0000E+00  0.0000E+00
     -1.341  0.0000E+00  0.0000E+00
     -1.308  0.0000E+00  0.0000E+00
     -1.274  0.0000E+00  0.0000E+00
     -1.240  0.0000E+00  0.0000E+00
     -1.206  0.0000E+00  0.0000E+00
     -1.172  0.0000E+00  0.0000E+00
     -1.138  0.0000E+00  0.0000E+00
     -1.104  0.1309E-16  0.4441E-18
     -1.070  0.5309E-15  0.1845E-16
     -1.036  0.1768E-13  0.6182E-15
     -1.002  0.4691E-12  0.1653E-13
     -0.968  0.9913E-11  0.3527E-12
     -0.934  0.1670E-09  0.6015E-11
     -0.901  0.2241E-08  0.8201E-10
     -0.867  0.2398E-07  0.8951E-09
     -0.833  0.2045E-06  0.7831E-08
     -0.799  0.1391E-05  0.5500E-07
     -0.765  0.7544E-05  0.3109E-06
     -0.731  0.3264E-04  0.1418E-05
     -0.697  0.1126E-03  0.5237E-05
     -0.663  0.3101E-03  0.1575E-04
     -0.629  0.6810E-03  0.3885E-04
     -0.595  0.1194E-02  0.7933E-04
     -0.561  0.1669E-02  0.1359E-03
     -0.527  0.1863E-02  0.1991E-03
     -0.494  0.1659E-02  0.2554E-03
     -0.460  0.1182E-02  0.2955E-03
     -0.426  0.6823E-03  0.3186E-03
     -0.392  0.3572E-03  0.3307E-03
     -0.358  0.2820E-03  0.3403E-03
     -0.324  0.4664E-03  0.3561E-03
     -0.290  0.8810E-03  0.3860E-03
     -0.256  0.1402E-02  0.4335E-03
     -0.222  0.1795E-02  0.4944E-03
     -0.188  0.1847E-02  0.5571E-03
     -0.154  0.1562E-02  0.6100E-03
     -0.121  0.1186E-02  0.6503E-03
     -0.087  0.1025E-02  0.6850E-03
     -0.053  0.1204E-02  0.7258E-03
     -0.019  0.1583E-02  0.7795E-03
      0.015  0.1854E-02  0.8424E-03
      0.049  0.1781E-02  0.9028E-03
      0.083  0.1373E-02  0.9494E-03
      0.117  0.8462E-03  0.9781E-03
      0.151  0.4161E-03  0.9922E-03
      0.185  0.1633E-03  0.9977E-03
      0.219  0.5172E-04  0.9995E-03
      0.253  0.1649E-04  0.1000E-02
      0.286  0.2080E-04  0.1001E-02
      0.320  0.7230E-04  0.1003E-02
      0.354  0.2286E-03  0.1011E-02
      0.388  0.5897E-03  0.1031E-02
      0.422  0.1244E-02  0.1073E-02
      0.456  0.2171E-02  0.1147E-02
      0.490  0.3197E-02  0.1255E-02
      0.524  0.4112E-02  0.1395E-02
      0.558  0.4853E-02  0.1559E-02
      0.592  0.5508E-02  0.1746E-02
      0.626  0.6064E-02  0.1952E-02
      0.660  0.6223E-02  0.2163E-02
      0.693  0.5641E-02  0.2354E-02
      0.727  0.4368E-02  0.2502E-02
      0.761  0.2960E-02  0.2603E-02
      0.795  0.2125E-02  0.2675E-02
      0.829  0.2332E-02  0.2754E-02
      0.863  0.3622E-02  0.2877E-02
      0.897  0.5607E-02  0.3067E-02
      0.931  0.7633E-02  0.3326E-02
      0.965  0.9138E-02  0.3636E-02
      0.999  0.9957E-02  0.3973E-02
      1.033  0.1031E-01  0.4323E-02
      1.066  0.1056E-01  0.4681E-02
      1.100  0.1090E-01  0.5051E-02
      1.134  0.1120E-01  0.5431E-02
      1.168  0.1098E-01  0.5803E-02
      1.202  0.9801E-02  0.6136E-02
      1.236  0.7753E-02  0.6399E-02
      1.270  0.5544E-02  0.6587E-02
      1.304  0.3925E-02  0.6720E-02
      1.338  0.3149E-02  0.6827E-02
      1.372  0.3033E-02  0.6929E-02
      1.406  0.3333E-02  0.7042E-02
      1.440  0.3867E-02  0.7174E-02
      1.473  0.4370E-02  0.7322E-02
      1.507  0.4533E-02  0.7476E-02
      1.541  0.4243E-02  0.7619E-02
      1.575  0.3641E-02  0.7743E-02
      1.609  0.2915E-02  0.7842E-02
      1.643  0.2191E-02  0.7916E-02
      1.677  0.1645E-02  0.7972E-02
      1.711  0.1601E-02  0.8026E-02
      1.745  0.2418E-02  0.8108E-02
      1.779  0.4211E-02  0.8251E-02
      1.813  0.6546E-02  0.8473E-02
      1.847  0.8441E-02  0.8759E-02
      1.880  0.8920E-02  0.9062E-02
      1.914  0.7792E-02  0.9326E-02
      1.948  0.5876E-02  0.9525E-02
      1.982  0.4387E-02  0.9674E-02
      2.016  0.4086E-02  0.9813E-02
      2.050  0.4920E-02  0.9979E-02
      2.084  0.6290E-02  0.1019E-01
      2.118  0.7506E-02  0.1045E-01
      2.152  0.8091E-02  0.1072E-01
      2.186  0.7923E-02  0.1099E-01
      2.220  0.7300E-02  0.1124E-01
      2.253  0.6791E-02  0.1147E-01
      2.287  0.6906E-02  0.1170E-01
      2.321  0.7884E-02  0.1197E-01
      2.355  0.9619E-02  0.1230E-01
      2.389  0.1149E-01  0.1269E-01
      2.423  0.1250E-01  0.1311E-01
      2.457  0.1201E-01  0.1352E-01
      2.491  0.1056E-01  0.1388E-01
      2.525  0.9403E-02  0.1419E-01
      2.559  0.9462E-02  0.1452E-01
      2.593  0.1074E-01  0.1488E-01
      2.627  0.1271E-01  0.1531E-01
      2.660  0.1487E-01  0.1581E-01
      2.694  0.1705E-01  0.1639E-01
      2.728  0.1953E-01  0.1706E-01
      2.762  0.2285E-01  0.1783E-01
      2.796  0.2723E-01  0.1875E-01
      2.830  0.3204E-01  0.1984E-01
      2.864  0.3622E-01  0.2107E-01
      2.898  0.3897E-01  0.2239E-01
      2.932  0.4011E-01  0.2375E-01
      2.966  0.3995E-01  0.2511E-01
      3.000  0.3911E-01  0.2643E-01
      3.033  0.3804E-01  0.2772E-01
      3.067  0.3654E-01  0.2896E-01
      3.101  0.3423E-01  0.3012E-01
      3.135  0.3157E-01  0.3119E-01
      3.169  0.3000E-01  0.3221E-01
      3.203  0.3071E-01  0.3325E-01
      3.237  0.3327E-01  0.3438E-01
      3.271  0.3600E-01  0.3560E-01
      3.305  0.3776E-01  0.3688E-01
      3.339  0.3912E-01  0.3821E-01
      3.373  0.4165E-01  0.3962E-01
      3.407  0.4598E-01  0.4118E-01
      3.440  0.5123E-01  0.4292E-01
      3.474  0.5592E-01  0.4481E-01
      3.508  0.5938E-01  0.4683E-01
      3.542  0.6187E-01  0.4893E-01
      3.576  0.6388E-01  0.5109E-01
      3.610  0.6553E-01  0.5332E-01
      3.644  0.6652E-01  0.5557E-01
      3.678  0.6638E-01  0.5782E-01
      3.712  0.6493E-01  0.6002E-01
      3.746  0.6253E-01  0.6215E-01
      3.780  0.5975E-01  0.6417E-01
      3.814  0.5695E-01  0.6610E-01
      3.847  0.5440E-01  0.6795E-01
      3.881  0.5256E-01  0.6973E-01
      3.915  0.5178E-01  0.7149E-01
      3.949  0.5156E-01  0.7324E-01
      3.983  0.5076E-01  0.7496E-01
      4.017  0.4860E-01  0.7660E-01
      4.051  0.4534E-01  0.7814E-01
      4.085  0.4181E-01  0.7956E-01
      4.119  0.3886E-01  0.8088E-01
      4.153  0.3725E-01  0.8214E-01
      4.187  0.3773E-01  0.8342E-01
      4.220  0.4048E-01  0.8479E-01
      4.254  0.4461E-01  0.8631E-01
      4.288  0.4861E-01  0.8796E-01
      4.322  0.5137E-01  0.8970E-01
      4.356  0.5287E-01  0.9149E-01
      4.390  0.5399E-01  0.9332E-01
      4.424  0.5577E-01  0.9521E-01
      4.458  0.5854E-01  0.9720E-01
      4.492  0.6159E-01  0.9929E-01
      4.526  0.6374E-01  0.1014E+00
      4.560  0.6444E-01  0.1036E+00
      4.594  0.6405E-01  0.1058E+00
      4.627  0.6295E-01  0.1079E+00
      4.661  0.6071E-01  0.1100E+00
      4.695  0.5677E-01  0.1119E+00
      4.729  0.5190E-01  0.1137E+00
      4.763  0.4835E-01  0.1153E+00
      4.797  0.4836E-01  0.1170E+00
      4.831  0.5267E-01  0.1188E+00
      4.865  0.6011E-01  0.1208E+00
      4.899  0.6830E-01  0.1231E+00
      4.933  0.7488E-01  0.1256E+00
      4.967  0.7866E-01  0.1283E+00
      5.001  0.7966E-01  0.1310E+00
      5.034  0.7841E-01  0.1337E+00
      5.068  0.7536E-01  0.1362E+00
      5.102  0.7085E-01  0.1386E+00
      5.136  0.6547E-01  0.1409E+00
      5.170  0.6044E-01  0.1429E+00
      5.204  0.5745E-01  0.1449E+00
      5.238  0.5754E-01  0.1468E+00
      5.272  0.6010E-01  0.1488E+00
      5.306  0.6326E-01  0.1510E+00
      5.340  0.6552E-01  0.1532E+00
      5.374  0.6670E-01  0.1555E+00
      5.407  0.6745E-01  0.1578E+00
      5.441  0.6844E-01  0.1601E+00
      5.475  0.7003E-01  0.1625E+00
      5.509  0.7228E-01  0.1649E+00
      5.543  0.7474E-01  0.1674E+00
      5.577  0.7623E-01  0.1700E+00
      5.611  0.7528E-01  0.1726E+00
      5.645  0.7105E-01  0.1750E+00
      5.679  0.6430E-01  0.1772E+00
      5.713  0.5722E-01  0.1791E+00
      5.747  0.5227E-01  0.1809E+00
      5.781  0.5078E-01  0.1826E+00
      5.814  0.5257E-01  0.1844E+00
      5.848  0.5634E-01  0.1863E+00
      5.882  0.6048E-01  0.1884E+00
      5.916  0.6386E-01  0.1905E+00
      5.950  0.6638E-01  0.1928E+00
      5.984  0.6849E-01  0.1951E+00
      6.018  0.7015E-01  0.1975E+00
      6.052  0.7057E-01  0.1999E+00
      6.086  0.6912E-01  0.2022E+00
      6.120  0.6609E-01  0.2044E+00
      6.154  0.6243E-01  0.2066E+00
      6.188  0.5887E-01  0.2086E+00
      6.221  0.5560E-01  0.2104E+00
      6.255  0.5250E-01  0.2122E+00
      6.289  0.4947E-01  0.2139E+00
      6.323  0.4648E-01  0.2155E+00
      6.357  0.4359E-01  0.2170E+00
      6.391  0.4096E-01  0.2183E+00
      6.425  0.3881E-01  0.2197E+00
      6.459  0.3734E-01  0.2209E+00
      6.493  0.3656E-01  0.2222E+00
      6.527  0.3610E-01  0.2234E+00
      6.561  0.3522E-01  0.2246E+00
      6.594  0.3333E-01  0.2257E+00
      6.628  0.3051E-01  0.2268E+00
      6.662  0.2753E-01  0.2277E+00
      6.696  0.2536E-01  0.2286E+00
      6.730  0.2467E-01  0.2294E+00
      6.764  0.2578E-01  0.2303E+00
      6.798  0.2862E-01  0.2312E+00
      6.832  0.3266E-01  0.2323E+00
      6.866  0.3692E-01  0.2336E+00
      6.900  0.4018E-01  0.2350E+00
      6.934  0.4174E-01  0.2364E+00
      6.968  0.4200E-01  0.2378E+00
      7.001  0.4228E-01  0.2392E+00
      7.035  0.4367E-01  0.2407E+00
      7.069  0.4619E-01  0.2423E+00
      7.103  0.4923E-01  0.2439E+00
      7.137  0.5234E-01  0.2457E+00
      7.171  0.5551E-01  0.2476E+00
      7.205  0.5878E-01  0.2496E+00
      7.239  0.6186E-01  0.2517E+00
      7.273  0.6425E-01  0.2539E+00
      7.307  0.6555E-01  0.2561E+00
      7.341  0.6563E-01  0.2583E+00
      7.375  0.6468E-01  0.2605E+00
      7.408  0.6300E-01  0.2627E+00
      7.442  0.6045E-01  0.2647E+00
      7.476  0.5627E-01  0.2666E+00
      7.510  0.4956E-01  0.2683E+00
      7.544  0.4015E-01  0.2697E+00
      7.578  0.2926E-01  0.2706E+00
      7.612  0.1895E-01  0.2713E+00
      7.646  0.1092E-01  0.2717E+00
      7.680  0.5661E-02  0.2719E+00
      7.714  0.2662E-02  0.2719E+00
      7.748  0.1130E-02  0.2720E+00
      7.781  0.4239E-03  0.2720E+00
      7.815  0.1365E-03  0.2720E+00
      7.849  0.3675E-04  0.2720E+00
      7.883  0.8126E-05  0.2720E+00
      7.917  0.1458E-05  0.2720E+00
      7.951  0.2108E-06  0.2720E+00
      7.985  0.2446E-07  0.2720E+00
      8.019  0.2271E-08  0.2720E+00
      8.053  0.1684E-09  0.2720E+00
      8.087  0.9972E-11  0.2720E+00
      8.121  0.4709E-12  0.2720E+00
      8.155  0.1773E-13  0.2720E+00
      8.188  0.5314E-15  0.2720E+00
      8.222  0.1309E-16  0.2720E+00
      8.256  0.0000E+00  0.2720E+00
      8.290  0.0000E+00  0.2720E+00
      8.324  0.0000E+00  0.2720E+00
      8.358  0.0000E+00  0.2720E+00
      8.392  0.0000E+00  0.2720E+00
      8.426  0.0000E+00  0.2720E+00
      8.460  0.0000E+00  0.2720E+00
      8.494  0.0000E+00  0.2720E+00
      8.528  0.0000E+00  0.2720E+00
      8.562  0.0000E+00  0.2720E+00
      8.595  0.0000E+00  0.2720E+00
      8.629  0.0000E+00  0.2720E+00
