   20   20  500    1
  0.1280405E+02  0.6852822E-09  0.9165572E-09  0.4256068E-09  0.5000000E-15
  1.000000000000000E-004
  CAR 
 unknown system                          
    109      8     68
 
  0.0000000E+00  0.0000000E+00  0.0000000E+00  0.8333333E-01
    1       -0.544917   1.000000
    2        1.048213   1.000000
    3        1.092621   1.000000
    4        2.616219   1.000000
    5        2.867403   1.000000
    6        3.015344   1.000000
    7        3.032982   1.000000
    8        3.129248   1.000000
    9        3.229807   1.000000
   10        3.267029   1.000000
   11        3.394114   1.000000
   12        3.466167   1.000000
   13        3.551235   1.000000
   14        3.665639   1.000000
   15        3.807487   1.000000
   16        3.966138   1.000000
   17        3.999386   1.000000
   18        4.137640   1.000000
   19        4.220096   1.000000
   20        4.295430   1.000000
   21        4.311613   1.000000
   22        4.344003   1.000000
   23        4.366994   1.000000
   24        4.466054   1.000000
   25        4.477101   1.000000
   26        4.505029   1.000000
   27        4.560812   1.000000
   28        4.671364   1.000000
   29        4.696950   1.000000
   30        4.828235   1.000000
   31        4.874286   1.000000
   32        4.899626   1.000000
   33        4.936524   1.000000
   34        4.995327   1.000000
   35        5.034391   1.000000
   36        5.062292   1.000000
   37        5.098263   1.000000
   38        5.150655   1.000000
   39        5.231461   1.000000
   40        5.307844   1.000000
   41        5.311681   1.000000
   42        5.378585   1.000000
   43        5.391042   1.000000
   44        5.420012   1.000000
   45        5.495434   1.000000
   46        5.572298   1.000000
   47        5.675022   1.000000
   48        5.806746   1.000000
   49        5.877715   1.000000
   50        5.966131   1.000000
   51        6.039845   0.999999
   52        6.047421   0.999999
   53        6.174618   0.998341
   54        6.308132   0.852777
   55        6.359886   0.624194
   56        6.421716   0.288458
   57        6.443955   0.191493
   58        6.566950   0.004503
   59        6.888155   0.000000
   60        6.945810   0.000000
   61        6.992466   0.000000
   62        7.048162   0.000000
   63        7.132855   0.000000
   64        7.198586   0.000000
   65        7.238719   0.000000
   66        7.299594   0.000000
   67        7.320795   0.000000
   68        7.371258   0.000000
 
  0.5000000E+00 -0.1485329E-18 -0.1197754E-16  0.8333333E-01
    1        0.488093   1.000000
    2        0.631527   1.000000
    3        1.593681   1.000000
    4        1.823203   1.000000
    5        2.157689   1.000000
    6        2.421336   1.000000
    7        2.831756   1.000000
    8        3.055600   1.000000
    9        3.263385   1.000000
   10        3.409830   1.000000
   11        3.468358   1.000000
   12        3.590370   1.000000
   13        3.624769   1.000000
   14        3.646286   1.000000
   15        3.727318   1.000000
   16        3.802833   1.000000
   17        3.856449   1.000000
   18        3.899664   1.000000
   19        3.927533   1.000000
   20        4.008530   1.000000
   21        4.045867   1.000000
   22        4.213455   1.000000
   23        4.291544   1.000000
   24        4.342637   1.000000
   25        4.420016   1.000000
   26        4.425113   1.000000
   27        4.509597   1.000000
   28        4.539576   1.000000
   29        4.549840   1.000000
   30        4.713038   1.000000
   31        4.759961   1.000000
   32        4.872931   1.000000
   33        4.938255   1.000000
   34        4.973968   1.000000
   35        4.984684   1.000000
   36        5.040625   1.000000
   37        5.108105   1.000000
   38        5.120682   1.000000
   39        5.374441   1.000000
   40        5.408756   1.000000
   41        5.469657   1.000000
   42        5.506286   1.000000
   43        5.623622   1.000000
   44        5.630829   1.000000
   45        5.765590   1.000000
   46        5.818161   1.000000
   47        5.835204   1.000000
   48        5.920978   1.000000
   49        6.006464   1.000000
   50        6.020902   1.000000
   51        6.090877   0.999981
   52        6.112369   0.999932
   53        6.242491   0.975964
   54        6.328620   0.775979
   55        6.548819   0.009251
   56        6.859385   0.000000
   57        6.969497   0.000000
   58        7.095003   0.000000
   59        7.123713   0.000000
   60        7.178003   0.000000
   61        7.204076   0.000000
   62        7.269769   0.000000
   63        7.307584   0.000000
   64        7.390106   0.000000
   65        7.432853   0.000000
   66        7.455809   0.000000
   67        7.506445   0.000000
   68        7.629335   0.000000
 
 -0.9843644E-18  0.5000000E+00 -0.3195348E-19  0.8333333E-01
    1       -0.219205   1.000000
    2        0.010230   1.000000
    3        2.398881   1.000000
    4        2.538864   1.000000
    5        2.669729   1.000000
    6        2.814592   1.000000
    7        2.901523   1.000000
    8        2.914639   1.000000
    9        3.399412   1.000000
   10        3.492613   1.000000
   11        3.548414   1.000000
   12        3.630525   1.000000
   13        3.686632   1.000000
   14        3.701746   1.000000
   15        3.790932   1.000000
   16        3.848608   1.000000
   17        3.854959   1.000000
   18        3.986467   1.000000
   19        4.067798   1.000000
   20        4.140726   1.000000
   21        4.308216   1.000000
   22        4.354064   1.000000
   23        4.376709   1.000000
   24        4.447062   1.000000
   25        4.451590   1.000000
   26        4.464530   1.000000
   27        4.526312   1.000000
   28        4.532228   1.000000
   29        4.650861   1.000000
   30        4.718158   1.000000
   31        4.850296   1.000000
   32        4.868560   1.000000
   33        4.925071   1.000000
   34        5.016672   1.000000
   35        5.068156   1.000000
   36        5.099178   1.000000
   37        5.196858   1.000000
   38        5.250843   1.000000
   39        5.295073   1.000000
   40        5.348519   1.000000
   41        5.383401   1.000000
   42        5.394572   1.000000
   43        5.424012   1.000000
   44        5.476442   1.000000
   45        5.513818   1.000000
   46        5.627630   1.000000
   47        5.640376   1.000000
   48        5.695415   1.000000
   49        5.927553   1.000000
   50        5.980124   1.000000
   51        6.000342   1.000000
   52        6.141497   0.999669
   53        6.205908   0.993686
   54        6.278557   0.928768
   55        6.411319   0.340585
   56        6.464641   0.122020
   57        6.486568   0.070100
   58        6.545685   0.010414
   59        6.567748   0.004357
   60        6.734110   0.000000
   61        6.776416   0.000000
   62        7.092470   0.000000
   63        7.223108   0.000000
   64        7.278406   0.000000
   65        7.300137   0.000000
   66        7.365913   0.000000
   67        7.506643   0.000000
   68        7.520129   0.000000
 
  0.5000000E+00  0.5000000E+00 -0.7084166E-17  0.8333333E-01
    1        0.544246   1.000000
    2        0.940320   1.000000
    3        1.105418   1.000000
    4        1.341366   1.000000
    5        2.732616   1.000000
    6        2.802340   1.000000
    7        2.972370   1.000000
    8        3.048297   1.000000
    9        3.164821   1.000000
   10        3.378380   1.000000
   11        3.409085   1.000000
   12        3.454962   1.000000
   13        3.466224   1.000000
   14        3.531597   1.000000
   15        3.560661   1.000000
   16        3.915221   1.000000
   17        3.925991   1.000000
   18        3.969935   1.000000
   19        4.027596   1.000000
   20        4.051785   1.000000
   21        4.127181   1.000000
   22        4.180277   1.000000
   23        4.228613   1.000000
   24        4.298904   1.000000
   25        4.397455   1.000000
   26        4.437224   1.000000
   27        4.517316   1.000000
   28        4.522579   1.000000
   29        4.605368   1.000000
   30        4.621496   1.000000
   31        4.803327   1.000000
   32        4.823279   1.000000
   33        4.898638   1.000000
   34        4.942241   1.000000
   35        4.991572   1.000000
   36        5.030440   1.000000
   37        5.230882   1.000000
   38        5.297875   1.000000
   39        5.335189   1.000000
   40        5.463153   1.000000
   41        5.483535   1.000000
   42        5.546458   1.000000
   43        5.569201   1.000000
   44        5.634119   1.000000
   45        5.674665   1.000000
   46        5.807523   1.000000
   47        5.850363   1.000000
   48        5.876289   1.000000
   49        6.014007   1.000000
   50        6.033038   1.000000
   51        6.061556   0.999997
   52        6.129924   0.999821
   53        6.270081   0.943691
   54        6.293735   0.894720
   55        6.445920   0.184010
   56        6.857785   0.000000
   57        6.888150   0.000000
   58        7.043862   0.000000
   59        7.093363   0.000000
   60        7.183783   0.000000
   61        7.214910   0.000000
   62        7.236172   0.000000
   63        7.316811   0.000000
   64        7.328245   0.000000
   65        7.410124   0.000000
   66        7.440710   0.000000
   67        7.489507   0.000000
   68        7.572949   0.000000
 
  0.1320018E-16  0.1980710E-19  0.3333333E+00  0.1666667E+00
    1        0.668972   1.000000
    2        1.846930   1.000000
    3        2.069878   1.000000
    4        2.822062   1.000000
    5        2.927557   1.000000
    6        2.960787   1.000000
    7        3.075969   1.000000
    8        3.224220   1.000000
    9        3.315709   1.000000
   10        3.397444   1.000000
   11        3.460825   1.000000
   12        3.539559   1.000000
   13        3.550045   1.000000
   14        3.626881   1.000000
   15        3.679031   1.000000
   16        3.696955   1.000000
   17        3.704401   1.000000
   18        3.757540   1.000000
   19        3.800086   1.000000
   20        3.912727   1.000000
   21        3.968633   1.000000
   22        4.115065   1.000000
   23        4.245916   1.000000
   24        4.389225   1.000000
   25        4.515011   1.000000
   26        4.572928   1.000000
   27        4.658579   1.000000
   28        4.679817   1.000000
   29        4.797361   1.000000
   30        4.877359   1.000000
   31        4.916548   1.000000
   32        4.975124   1.000000
   33        5.007502   1.000000
   34        5.050295   1.000000
   35        5.128413   1.000000
   36        5.179555   1.000000
   37        5.269379   1.000000
   38        5.294846   1.000000
   39        5.336315   1.000000
   40        5.449272   1.000000
   41        5.525021   1.000000
   42        5.566674   1.000000
   43        5.620815   1.000000
   44        5.643411   1.000000
   45        5.709940   1.000000
   46        5.746123   1.000000
   47        5.858724   1.000000
   48        5.904032   1.000000
   49        6.006074   1.000000
   50        6.027238   1.000000
   51        6.086943   0.999985
   52        6.128344   0.999835
   53        6.212472   0.991831
   54        6.289857   0.904372
   55        6.399958   0.401221
   56        6.520939   0.024932
   57        6.595153   0.001303
   58        6.648868   0.000082
   59        6.821218   0.000000
   60        6.933729   0.000000
   61        7.026677   0.000000
   62        7.131577   0.000000
   63        7.184462   0.000000
   64        7.257536   0.000000
   65        7.333090   0.000000
   66        7.387282   0.000000
   67        7.453734   0.000000
   68        7.516989   0.000000
 
  0.5000000E+00 -0.3011684E-17  0.3333333E+00  0.1666667E+00
    1        1.003196   1.000000
    2        1.878388   1.000000
    3        2.161312   1.000000
    4        2.408276   1.000000
    5        2.588979   1.000000
    6        2.697853   1.000000
    7        2.863041   1.000000
    8        3.025796   1.000000
    9        3.261330   1.000000
   10        3.298644   1.000000
   11        3.472448   1.000000
   12        3.553083   1.000000
   13        3.611927   1.000000
   14        3.622473   1.000000
   15        3.729642   1.000000
   16        3.803966   1.000000
   17        3.817799   1.000000
   18        3.876313   1.000000
   19        3.937376   1.000000
   20        4.020347   1.000000
   21        4.098059   1.000000
   22        4.221469   1.000000
   23        4.295892   1.000000
   24        4.444943   1.000000
   25        4.549683   1.000000
   26        4.607482   1.000000
   27        4.639175   1.000000
   28        4.703979   1.000000
   29        4.800726   1.000000
   30        4.860505   1.000000
   31        4.895863   1.000000
   32        4.947291   1.000000
   33        4.998478   1.000000
   34        5.085685   1.000000
   35        5.135492   1.000000
   36        5.151385   1.000000
   37        5.269119   1.000000
   38        5.299855   1.000000
   39        5.388533   1.000000
   40        5.450940   1.000000
   41        5.503288   1.000000
   42        5.534959   1.000000
   43        5.593790   1.000000
   44        5.655271   1.000000
   45        5.747507   1.000000
   46        5.808196   1.000000
   47        5.902932   1.000000
   48        5.930333   1.000000
   49        5.960431   1.000000
   50        6.052915   0.999998
   51        6.156086   0.999310
   52        6.186879   0.997138
   53        6.254390   0.964732
   54        6.323780   0.795918
   55        6.422120   0.286510
   56        6.486219   0.070766
   57        6.596028   0.001251
   58        6.742580   0.000000
   59        6.875672   0.000000
   60        6.938236   0.000000
   61        7.011864   0.000000
   62        7.101694   0.000000
   63        7.175216   0.000000
   64        7.273850   0.000000
   65        7.315609   0.000000
   66        7.416932   0.000000
   67        7.470167   0.000000
   68        7.534280   0.000000
 
  0.1100789E-16  0.5000000E+00  0.3333333E+00  0.1666667E+00
    1        0.916791   1.000000
    2        1.171295   1.000000
    3        2.687767   1.000000
    4        2.825109   1.000000
    5        2.942507   1.000000
    6        3.079984   1.000000
    7        3.096148   1.000000
    8        3.133739   1.000000
    9        3.246574   1.000000
   10        3.285196   1.000000
   11        3.407086   1.000000
   12        3.442437   1.000000
   13        3.495468   1.000000
   14        3.547219   1.000000
   15        3.617005   1.000000
   16        3.653755   1.000000
   17        3.704340   1.000000
   18        3.794191   1.000000
   19        3.852106   1.000000
   20        3.967007   1.000000
   21        4.073909   1.000000
   22        4.243288   1.000000
   23        4.324238   1.000000
   24        4.393585   1.000000
   25        4.482907   1.000000
   26        4.530362   1.000000
   27        4.614329   1.000000
   28        4.673997   1.000000
   29        4.749400   1.000000
   30        4.891080   1.000000
   31        4.901068   1.000000
   32        4.950034   1.000000
   33        5.029651   1.000000
   34        5.055918   1.000000
   35        5.127412   1.000000
   36        5.188253   1.000000
   37        5.258998   1.000000
   38        5.352746   1.000000
   39        5.417315   1.000000
   40        5.457750   1.000000
   41        5.541540   1.000000
   42        5.548699   1.000000
   43        5.588047   1.000000
   44        5.642079   1.000000
   45        5.758884   1.000000
   46        5.847730   1.000000
   47        5.876676   1.000000
   48        5.901358   1.000000
   49        5.952045   1.000000
   50        6.026135   1.000000
   51        6.071934   0.999994
   52        6.140720   0.999682
   53        6.169659   0.998680
   54        6.230311   0.984182
   55        6.340675   0.721800
   56        6.513871   0.031360
   57        6.570034   0.003960
   58        6.671547   0.000021
   59        6.794441   0.000000
   60        6.909817   0.000000
   61        7.048630   0.000000
   62        7.094427   0.000000
   63        7.204275   0.000000
   64        7.249063   0.000000
   65        7.325098   0.000000
   66        7.370632   0.000000
   67        7.441094   0.000000
   68        7.509707   0.000000
 
  0.5000000E+00  0.5000000E+00  0.3333333E+00  0.1666667E+00
    1        1.183164   1.000000
    2        1.477715   1.000000
    3        2.288458   1.000000
    4        2.422639   1.000000
    5        2.787671   1.000000
    6        2.871120   1.000000
    7        2.927531   1.000000
    8        2.954238   1.000000
    9        3.050718   1.000000
   10        3.217574   1.000000
   11        3.338610   1.000000
   12        3.439019   1.000000
   13        3.530421   1.000000
   14        3.607458   1.000000
   15        3.678706   1.000000
   16        3.736069   1.000000
   17        3.785917   1.000000
   18        3.937281   1.000000
   19        4.006336   1.000000
   20        4.120658   1.000000
   21        4.230392   1.000000
   22        4.293467   1.000000
   23        4.350639   1.000000
   24        4.460625   1.000000
   25        4.529279   1.000000
   26        4.624956   1.000000
   27        4.643611   1.000000
   28        4.669361   1.000000
   29        4.779289   1.000000
   30        4.903281   1.000000
   31        4.970908   1.000000
   32        4.990580   1.000000
   33        5.040259   1.000000
   34        5.083384   1.000000
   35        5.125092   1.000000
   36        5.232707   1.000000
   37        5.267865   1.000000
   38        5.327806   1.000000
   39        5.388585   1.000000
   40        5.458195   1.000000
   41        5.549338   1.000000
   42        5.578051   1.000000
   43        5.611286   1.000000
   44        5.637355   1.000000
   45        5.705802   1.000000
   46        5.791756   1.000000
   47        5.871787   1.000000
   48        5.948168   1.000000
   49        6.008775   1.000000
   50        6.037930   0.999999
   51        6.095470   0.999975
   52        6.108692   0.999945
   53        6.200968   0.994826
   54        6.241232   0.976953
   55        6.332986   0.757076
   56        6.384749   0.485997
   57        6.689053   0.000007
   58        6.817580   0.000000
   59        6.890553   0.000000
   60        6.927812   0.000000
   61        7.030443   0.000000
   62        7.117073   0.000000
   63        7.200659   0.000000
   64        7.281939   0.000000
   65        7.358113   0.000000
   66        7.402406   0.000000
   67        7.452154   0.000000
   68        7.525093   0.000000
