 running on    4 total cores
 distrk:  each k-point on    4 cores,    1 groups
 distr:  one band on    1 cores,    4 groups
 using from now: INCAR     
 vasp.5.4.4.18Apr17-6-g9f103f2a35 (build Jul 11 2019 11:52:51) complex          
  
 POSCAR found type information on POSCAR  V  Fe
 POSCAR found :  2 types and      20 ions
 scaLAPACK will be used

 ----------------------------------------------------------------------------- 
|                                                                             |
|  ADVICE TO THIS USER RUNNING 'VASP/VAMP'   (HEAR YOUR MASTER'S VOICE ...):  |
|                                                                             |
|      You have a (more or less) 'large supercell' and for larger cells       |
|      it might be more efficient to use real space projection opertators     |
|      So try LREAL= Auto  in the INCAR   file.                               |
|      Mind:          For very  accurate calculation you might also keep the  |
|      reciprocal projection scheme          (i.e. LREAL=.FALSE.)             |
|                                                                             |
 ----------------------------------------------------------------------------- 

 LDA part: xc-table for Pade appr. of Perdew
 POSCAR, INCAR and KPOINTS ok, starting setup
 FFT: planning ...
 WAVECAR not read
 entering main loop
       N       E                     dE             d eps       ncg     rms          rms(c)
DAV:   1     0.640453549393E+03    0.64045E+03   -0.22665E+04  1088   0.109E+03
DAV:   2    -0.700236918872E+02   -0.71048E+03   -0.68612E+03  1088   0.341E+02
DAV:   3    -0.189240000582E+03   -0.11922E+03   -0.11229E+03  1836   0.148E+02
DAV:   4    -0.201625736579E+03   -0.12386E+02   -0.11740E+02  1776   0.622E+01
DAV:   5    -0.202280165553E+03   -0.65443E+00   -0.63646E+00  1760   0.119E+01    0.569E+01
DAV:   6    -0.229387492293E+03   -0.27107E+02   -0.48644E+02  2032   0.181E+02    0.864E+01
DAV:   7    -0.180631112176E+03    0.48756E+02   -0.45999E+02  2060   0.148E+02    0.270E+01
DAV:   8    -0.201637950962E+03   -0.21007E+02   -0.25953E+02  2168   0.130E+02    0.501E+01
DAV:   9    -0.175114707386E+03    0.26523E+02   -0.99210E+01  2128   0.770E+01    0.142E+01
DAV:  10    -0.175408180119E+03   -0.29347E+00   -0.19626E+01  2144   0.284E+01    0.104E+01
DAV:  11    -0.175334795325E+03    0.73385E-01   -0.28809E+00  1912   0.163E+01    0.943E+00
DAV:  12    -0.175318568250E+03    0.16227E-01   -0.21140E+00  2048   0.131E+01    0.900E+00
DAV:  13    -0.175242289698E+03    0.76279E-01   -0.41730E+00  2048   0.163E+01    0.908E+00
DAV:  14    -0.175134553960E+03    0.10774E+00   -0.25239E+00  2104   0.134E+01    0.751E+00
DAV:  15    -0.174923492572E+03    0.21106E+00   -0.96912E-01  2112   0.819E+00    0.461E+00
DAV:  16    -0.174895058725E+03    0.28434E-01   -0.39510E-01  2064   0.490E+00    0.391E+00
DAV:  17    -0.174887555144E+03    0.75036E-02   -0.92799E-02  2024   0.237E+00    0.310E+00
DAV:  18    -0.174886208493E+03    0.13467E-02   -0.15958E-01  2016   0.278E+00    0.276E+00
DAV:  19    -0.174865653964E+03    0.20555E-01   -0.91361E-02  2096   0.239E+00    0.184E+00
DAV:  20    -0.174850973944E+03    0.14680E-01   -0.57110E-02  2168   0.171E+00    0.917E-01
DAV:  21    -0.174851652698E+03   -0.67875E-03   -0.13024E-02  1800   0.859E-01    0.933E-01
DAV:  22    -0.174849369333E+03    0.22834E-02   -0.37877E-03  1936   0.523E-01    0.597E-01
DAV:  23    -0.174848600277E+03    0.76906E-03   -0.42946E-03  2040   0.452E-01    0.383E-01
DAV:  24    -0.174847915106E+03    0.68517E-03   -0.37007E-03  2112   0.443E-01    0.521E-02
DAV:  25    -0.174847960313E+03   -0.45207E-04   -0.43196E-04  1752   0.177E-01    0.826E-02
DAV:  26    -0.174847928035E+03    0.32278E-04   -0.14268E-04  1760   0.988E-02    0.321E-02
DAV:  27    -0.174847928292E+03   -0.25667E-06   -0.25455E-05   880   0.471E-02
   1 F= -.17484793E+03 E0= -.17478611E+03  d E =-.174848E+03
 curvature:   0.00 expect dE= 0.000E+00 dE for cont linesearch  0.000E+00
 trial: gam= 0.00000 g(F)=  0.253E+00 g(S)=  0.771E-01 ort = 0.000E+00 (trialstep = 0.100E+01)
 search vector abs. value=  0.330E+00
 bond charge predicted
       N       E                     dE             d eps       ncg     rms          rms(c)
DAV:   1    -0.175283616882E+03   -0.43569E+00   -0.24377E+01  1112   0.250E+01    0.731E+00
DAV:   2    -0.186735342793E+03   -0.11452E+02   -0.71366E+01  2136   0.761E+01    0.387E+01
DAV:   3    -0.174869188617E+03    0.11866E+02   -0.34600E+01  2072   0.450E+01    0.315E+00
DAV:   4    -0.175187760339E+03   -0.31857E+00   -0.43972E+00  1976   0.127E+01    0.373E+00
DAV:   5    -0.175117509918E+03    0.70250E-01   -0.97747E-01  2176   0.854E+00    0.252E+00
DAV:   6    -0.175093397286E+03    0.24113E-01   -0.32355E-01  2080   0.546E+00    0.143E+00
DAV:   7    -0.175094569189E+03   -0.11719E-02   -0.21646E-01  2160   0.361E+00    0.145E+00
DAV:   8    -0.175074751659E+03    0.19818E-01   -0.15546E-01  1984   0.281E+00    0.654E-01
DAV:   9    -0.175079047999E+03   -0.42963E-02   -0.48184E-02  2000   0.198E+00    0.103E+00
DAV:  10    -0.175073228662E+03    0.58193E-02   -0.29477E-02  2000   0.169E+00    0.359E-01
DAV:  11    -0.175072743272E+03    0.48539E-03   -0.50383E-03  2040   0.581E-01    0.246E-01
DAV:  12    -0.175072481367E+03    0.26190E-03   -0.30475E-03  1800   0.413E-01    0.164E-01
DAV:  13    -0.175072281526E+03    0.19984E-03   -0.14650E-03  1784   0.310E-01    0.719E-02
DAV:  14    -0.175072308287E+03   -0.26761E-04   -0.43445E-04  1768   0.151E-01    0.630E-02
DAV:  15    -0.175072281542E+03    0.26744E-04   -0.24846E-04  1744   0.115E-01    0.265E-02
DAV:  16    -0.175072294140E+03   -0.12598E-04   -0.87843E-05  1384   0.757E-02    0.330E-02
DAV:  17    -0.175072283525E+03    0.10615E-04   -0.31702E-05   872   0.673E-02    0.150E-02
DAV:  18    -0.175072284141E+03   -0.61610E-06   -0.19274E-05   672   0.276E-02
   2 F= -.17507228E+03 E0= -.17500949E+03  d E =-.224356E+00
 trial-energy change:   -0.224356  1 .order   -0.226328   -0.330311   -0.122344
 step:   1.6492(harm=  1.5883)  dis= 0.07575  next Energy=  -175.111457 (dE=-0.264E+00)
 bond charge predicted
       N       E                     dE             d eps       ncg     rms          rms(c)
DAV:   1    -0.175200464808E+03   -0.12818E+00   -0.10127E+01  1112   0.158E+01    0.465E+00
DAV:   2    -0.180193384669E+03   -0.49929E+01   -0.29276E+01  2176   0.481E+01    0.271E+01
DAV:   3    -0.175036248794E+03    0.51571E+01   -0.17041E+01  2104   0.335E+01    0.197E+00
DAV:   4    -0.175143320728E+03   -0.10707E+00   -0.15589E+00  1840   0.782E+00    0.184E+00
DAV:   5    -0.175122905483E+03    0.20415E-01   -0.30984E-01  2144   0.491E+00    0.131E+00
DAV:   6    -0.175121761181E+03    0.11443E-02   -0.14426E-01  2112   0.353E+00    0.130E+00
DAV:   7    -0.175116341644E+03    0.54195E-02   -0.79244E-02  2080   0.253E+00    0.840E-01
DAV:   8    -0.175110550774E+03    0.57909E-02   -0.49802E-02  2088   0.165E+00    0.414E-01
DAV:   9    -0.175111438550E+03   -0.88778E-03   -0.15897E-02  2016   0.116E+00    0.538E-01
DAV:  10    -0.175109625024E+03    0.18135E-02   -0.95838E-03  2032   0.922E-01    0.177E-01
DAV:  11    -0.175109525630E+03    0.99394E-04   -0.21770E-03  1976   0.348E-01    0.140E-01
DAV:  12    -0.175109458270E+03    0.67361E-04   -0.97956E-04  1776   0.228E-01    0.954E-02
DAV:  13    -0.175109383317E+03    0.74953E-04   -0.52271E-04  1800   0.171E-01    0.371E-02
DAV:  14    -0.175109391716E+03   -0.83992E-05   -0.11118E-04  1560   0.812E-02    0.304E-02
DAV:  15    -0.175109385502E+03    0.62141E-05   -0.45382E-05  1080   0.600E-02
   3 F= -.17510939E+03 E0= -.17504734E+03  d E =-.261457E+00
 curvature:  -0.79 expect dE=-0.293E+00 dE for cont linesearch -0.146E-03
 trial: gam= 1.15391 g(F)=  0.558E-01 g(S)=  0.318E+00 ort =-0.784E-02 (trialstep = 0.469E+00)
 search vector abs. value=  0.795E+00
 bond charge predicted
       N       E                     dE             d eps       ncg     rms          rms(c)
DAV:   1    -0.175317468436E+03   -0.20808E+00   -0.12766E+01  1088   0.172E+01    0.440E+00
DAV:   2    -0.178778493501E+03   -0.34610E+01   -0.19761E+01  2160   0.418E+01    0.235E+01
DAV:   3    -0.175171503654E+03    0.36070E+01   -0.15812E+01  2176   0.370E+01    0.191E+00
DAV:   4    -0.175315330376E+03   -0.14383E+00   -0.17140E+00  2088   0.923E+00    0.365E+00
DAV:   5    -0.175250081826E+03    0.65249E-01   -0.42478E-01  1968   0.655E+00    0.176E+00
DAV:   6    -0.175243155432E+03    0.69264E-02   -0.24255E-01  2120   0.383E+00    0.147E+00
DAV:   7    -0.175231901651E+03    0.11254E-01   -0.11714E-01  2144   0.265E+00    0.829E-01
DAV:   8    -0.175227141342E+03    0.47603E-02   -0.48798E-02  2144   0.173E+00    0.399E-01
DAV:   9    -0.175227513064E+03   -0.37172E-03   -0.11784E-02  2080   0.970E-01    0.431E-01
DAV:  10    -0.175226169636E+03    0.13434E-02   -0.75829E-03  2080   0.740E-01    0.137E-01
DAV:  11    -0.175226395614E+03   -0.22598E-03   -0.35729E-03  2144   0.472E-01    0.177E-01
DAV:  12    -0.175226110415E+03    0.28520E-03   -0.17114E-03  2088   0.331E-01    0.672E-02
DAV:  13    -0.175226092057E+03    0.18358E-04   -0.42220E-04  1832   0.157E-01    0.566E-02
DAV:  14    -0.175226092401E+03   -0.34368E-06   -0.92958E-05  1416   0.756E-02
   4 F= -.17522609E+03 E0= -.17516665E+03  d E =-.116707E+00
 trial-energy change:   -0.116707  1 .order   -0.113544   -0.170989   -0.056099
 step:   0.6557(harm=  0.6986)  dis= 0.04249  next Energy=  -175.237418 (dE=-0.128E+00)
 bond charge predicted
       N       E                     dE             d eps       ncg     rms          rms(c)
DAV:   1    -0.175253674820E+03   -0.27583E-01   -0.20358E+00  1100   0.702E+00    0.172E+00
DAV:   2    -0.175800337438E+03   -0.54666E+00   -0.30885E+00  2176   0.164E+01    0.950E+00
DAV:   3    -0.175236137061E+03    0.56420E+00   -0.25138E+00  2176   0.147E+01    0.750E-01
DAV:   4    -0.175249909625E+03   -0.13773E-01   -0.18537E-01  1888   0.337E+00    0.118E+00
DAV:   5    -0.175245349792E+03    0.45598E-02   -0.70131E-02  1840   0.281E+00    0.740E-01
DAV:   6    -0.175242210234E+03    0.31396E-02   -0.40213E-02  2080   0.174E+00    0.472E-01
DAV:   7    -0.175241388109E+03    0.82212E-03   -0.15154E-02  2136   0.907E-01    0.301E-01
DAV:   8    -0.175240533887E+03    0.85422E-03   -0.71460E-03  2152   0.597E-01    0.105E-01
DAV:   9    -0.175240636320E+03   -0.10243E-03   -0.19674E-03  2128   0.382E-01    0.155E-01
DAV:  10    -0.175240479857E+03    0.15646E-03   -0.10109E-03  2128   0.316E-01    0.731E-02
DAV:  11    -0.175240442290E+03    0.37567E-04   -0.35542E-04  2112   0.163E-01    0.261E-02
DAV:  12    -0.175240442117E+03    0.17229E-06   -0.67209E-05  1296   0.713E-02
   5 F= -.17524044E+03 E0= -.17518193E+03  d E =-.131057E+00
 curvature:  -0.74 expect dE=-0.393E-01 dE for cont linesearch -0.571E-03
 ZBRENT: extrapolating
 opt :   0.7045  next Energy=  -175.241049 (dE=-0.132E+00)
 bond charge predicted
       N       E                     dE             d eps       ncg     rms          rms(c)
DAV:   1    -0.175241902782E+03   -0.14605E-02   -0.14115E-01  1120   0.186E+00    0.459E-01
DAV:   2    -0.175281531572E+03   -0.39629E-01   -0.21886E-01  2176   0.439E+00    0.257E+00
DAV:   3    -0.175240841189E+03    0.40690E-01   -0.17652E-01  2176   0.385E+00    0.219E-01
DAV:   4    -0.175241579386E+03   -0.73820E-03   -0.12016E-02  1856   0.864E-01    0.283E-01
DAV:   5    -0.175241402829E+03    0.17656E-03   -0.48761E-03  1872   0.727E-01    0.216E-01
DAV:   6    -0.175241089071E+03    0.31376E-03   -0.27739E-03  1952   0.488E-01    0.106E-01
DAV:   7    -0.175241092625E+03   -0.35545E-05   -0.10495E-03  2152   0.257E-01    0.986E-02
DAV:   8    -0.175241013440E+03    0.79185E-04   -0.52022E-04  2160   0.191E-01    0.371E-02
DAV:   9    -0.175241010809E+03    0.26309E-05   -0.11982E-04  1792   0.106E-01    0.312E-02
DAV:  10    -0.175241005619E+03    0.51906E-05   -0.32814E-05   976   0.738E-02
   6 F= -.17524101E+03 E0= -.17518269E+03  d E =-.131620E+00
 curvature:  -0.78 expect dE=-0.438E-01 dE for cont linesearch -0.119E-04
 trial: gam= 0.08588 g(F)=  0.543E-01 g(S)=  0.173E-02 ort =-0.347E-02 (trialstep = 0.516E+00)
 search vector abs. value=  0.613E-01
 bond charge predicted
       N       E                     dE             d eps       ncg     rms          rms(c)
DAV:   1    -0.175266234897E+03   -0.25224E-01   -0.10898E+00  1088   0.370E+00    0.443E-01
DAV:   2    -0.175297932079E+03   -0.31697E-01   -0.21926E-01  2160   0.400E+00    0.213E+00
DAV:   3    -0.175267655197E+03    0.30277E-01   -0.14063E-01  2160   0.338E+00    0.327E-01
DAV:   4    -0.175267703568E+03   -0.48370E-04   -0.12216E-02  1776   0.952E-01    0.260E-01
DAV:   5    -0.175267957218E+03   -0.25365E-03   -0.81760E-03  2016   0.900E-01    0.388E-01
DAV:   6    -0.175267041404E+03    0.91581E-03   -0.70692E-03  2024   0.793E-01    0.149E-01
DAV:   7    -0.175267115688E+03   -0.74284E-04   -0.32414E-03  2104   0.431E-01    0.152E-01
DAV:   8    -0.175266852427E+03    0.26326E-03   -0.14953E-03  1792   0.285E-01    0.428E-02
DAV:   9    -0.175266865643E+03   -0.13215E-04   -0.33271E-04  2096   0.150E-01    0.526E-02
DAV:  10    -0.175266863338E+03    0.23053E-05   -0.18157E-04  2024   0.130E-01    0.520E-02
DAV:  11    -0.175266845298E+03    0.18040E-04   -0.10017E-04  1776   0.928E-02    0.151E-02
DAV:  12    -0.175266844837E+03    0.46052E-06   -0.18540E-05   688   0.424E-02
   7 F= -.17526684E+03 E0= -.17520861E+03  d E =-.258392E-01
 ZBRENT: can't locate minimum, use default step
 trial-energy change:   -0.025839  1 .order   -0.025835   -0.028800   -0.022871
 step:   2.0658(harm=  2.5089)  dis= 0.04410  next Energy=  -175.310960 (dE=-0.700E-01)
 bond charge predicted
       N       E                     dE             d eps       ncg     rms          rms(c)
DAV:   1    -0.175302903352E+03   -0.36058E-01   -0.97797E+00  1088   0.110E+01    0.130E+00
DAV:   2    -0.175569787896E+03   -0.26688E+00   -0.18603E+00  2160   0.116E+01    0.614E+00
DAV:   3    -0.175314839511E+03    0.25495E+00   -0.11985E+00  2160   0.100E+01    0.947E-01
DAV:   4    -0.175315740441E+03   -0.90093E-03   -0.10730E-01  1784   0.283E+00    0.773E-01
DAV:   5    -0.175317828855E+03   -0.20884E-02   -0.73539E-02  1984   0.270E+00    0.115E+00
DAV:   6    -0.175309856735E+03    0.79721E-02   -0.62259E-02  2008   0.238E+00    0.452E-01
DAV:   7    -0.175310463656E+03   -0.60692E-03   -0.28094E-02  2136   0.129E+00    0.450E-01
DAV:   8    -0.175308158080E+03    0.23056E-02   -0.13224E-02  1760   0.837E-01    0.123E-01
DAV:   9    -0.175308263434E+03   -0.10535E-03   -0.29283E-03  2152   0.429E-01    0.141E-01
DAV:  10    -0.175308237100E+03    0.26334E-04   -0.14504E-03  2160   0.348E-01    0.142E-01
DAV:  11    -0.175308120882E+03    0.11622E-03   -0.80064E-04  2128   0.260E-01    0.496E-02
DAV:  12    -0.175308119834E+03    0.10483E-05   -0.23010E-04  2072   0.123E-01    0.384E-02
DAV:  13    -0.175308104220E+03    0.15614E-04   -0.10754E-04  1560   0.771E-02    0.109E-02
DAV:  14    -0.175308105512E+03   -0.12926E-05   -0.20218E-05   752   0.420E-02
   8 F= -.17530811E+03 E0= -.17525004E+03  d E =-.670999E-01
 curvature:  -1.31 expect dE=-0.322E-01 dE for cont linesearch -0.167E-02
 ZBRENT: extrapolating
 opt :   2.4515  next Energy=  -175.309808 (dE=-0.688E-01)
 bond charge predicted
       N       E                     dE             d eps       ncg     rms          rms(c)
DAV:   1    -0.175309424214E+03   -0.13200E-02   -0.60655E-01  1088   0.276E+00    0.325E-01
DAV:   2    -0.175326146198E+03   -0.16722E-01   -0.11809E-01  2160   0.294E+00    0.153E+00
DAV:   3    -0.175310302384E+03    0.15844E-01   -0.74399E-02  2160   0.246E+00    0.253E-01
DAV:   4    -0.175310258835E+03    0.43548E-04   -0.66198E-03  1840   0.701E-01    0.183E-01
DAV:   5    -0.175310398737E+03   -0.13990E-03   -0.43118E-03  2064   0.630E-01    0.280E-01
DAV:   6    -0.175309931392E+03    0.46735E-03   -0.38640E-03  2072   0.578E-01    0.116E-01
DAV:   7    -0.175309981548E+03   -0.50156E-04   -0.19283E-03  2144   0.340E-01    0.120E-01
DAV:   8    -0.175309816136E+03    0.16541E-03   -0.92325E-04  1760   0.224E-01    0.314E-02
DAV:   9    -0.175309820568E+03   -0.44322E-05   -0.19140E-04  1760   0.106E-01    0.295E-02
DAV:  10    -0.175309817283E+03    0.32852E-05   -0.56724E-05  1384   0.765E-02
   9 F= -.17530982E+03 E0= -.17525177E+03  d E =-.688117E-01
 curvature:  -1.34 expect dE=-0.419E-01 dE for cont linesearch -0.134E-06
 trial: gam= 0.55411 g(F)=  0.188E-01 g(S)=  0.125E-01 ort = 0.784E-04 (trialstep = 0.903E+00)
 search vector abs. value=  0.502E-01
 bond charge predicted
       N       E                     dE             d eps       ncg     rms          rms(c)
DAV:   1    -0.175359355669E+03   -0.49535E-01   -0.31875E+00  1144   0.976E+00    0.270E+00
DAV:   2    -0.176860724531E+03   -0.15014E+01   -0.86729E+00  2160   0.266E+01    0.154E+01
DAV:   3    -0.175310895527E+03    0.15498E+01   -0.59673E+00  2160   0.210E+01    0.104E+00
DAV:   4    -0.175341984592E+03   -0.31089E-01   -0.38850E-01  1832   0.429E+00    0.124E+00
DAV:   5    -0.175331299175E+03    0.10685E-01   -0.11649E-01  2160   0.314E+00    0.721E-01
DAV:   6    -0.175331108505E+03    0.19067E-03   -0.52025E-02  2144   0.207E+00    0.681E-01
DAV:   7    -0.175328252129E+03    0.28564E-02   -0.20209E-02  2096   0.134E+00    0.335E-01
DAV:   8    -0.175327258159E+03    0.99397E-03   -0.75787E-03  2160   0.712E-01    0.157E-01
DAV:   9    -0.175327446967E+03   -0.18881E-03   -0.27671E-03  2080   0.509E-01    0.236E-01
DAV:  10    -0.175327055153E+03    0.39181E-03   -0.21011E-03  2080   0.462E-01    0.874E-02
DAV:  11    -0.175327033393E+03    0.21761E-04   -0.67430E-04  2096   0.192E-01    0.617E-02
DAV:  12    -0.175327010714E+03    0.22678E-04   -0.19653E-04  1720   0.110E-01    0.330E-02
DAV:  13    -0.175327002555E+03    0.81592E-05   -0.58358E-05  1232   0.626E-02
  10 F= -.17532700E+03 E0= -.17526891E+03  d E =-.171853E-01
 trial-energy change:   -0.017185  1 .order   -0.017068   -0.028296   -0.005841
 step:   1.1296(harm=  1.1384)  dis= 0.01802  next Energy=  -175.327735 (dE=-0.179E-01)
 bond charge predicted
       N       E                     dE             d eps       ncg     rms          rms(c)
DAV:   1    -0.175329723722E+03   -0.27130E-02   -0.19698E-01  1156   0.239E+00    0.676E-01
DAV:   2    -0.175425151409E+03   -0.95428E-01   -0.53437E-01  2176   0.665E+00    0.403E+00
DAV:   3    -0.175326908049E+03    0.98243E-01   -0.41381E-01  2176   0.568E+00    0.254E-01
DAV:   4    -0.175328719525E+03   -0.18115E-02   -0.23210E-02  1696   0.118E+00    0.382E-01
DAV:   5    -0.175328085226E+03    0.63430E-03   -0.74793E-03  1752   0.961E-01    0.227E-01
DAV:   6    -0.175327850858E+03    0.23437E-03   -0.35292E-03  1944   0.553E-01    0.140E-01
DAV:   7    -0.175327796310E+03    0.54547E-04   -0.16324E-03  2152   0.324E-01    0.114E-01
DAV:   8    -0.175327689266E+03    0.10704E-03   -0.71254E-04  2176   0.217E-01    0.411E-02
DAV:   9    -0.175327685523E+03    0.37426E-05   -0.12711E-04  1792   0.119E-01    0.343E-02
DAV:  10    -0.175327675719E+03    0.98041E-05   -0.74875E-05  1456   0.889E-02
  11 F= -.17532768E+03 E0= -.17526954E+03  d E =-.178584E-01
 curvature:  -0.91 expect dE=-0.302E-01 dE for cont linesearch -0.123E-07
 trial: gam= 1.08793 g(F)=  0.131E-01 g(S)=  0.201E-01 ort =-0.260E-04 (trialstep = 0.514E+00)
 search vector abs. value=  0.926E-01
 bond charge predicted
       N       E                     dE             d eps       ncg     rms          rms(c)
DAV:   1    -0.175341153718E+03   -0.13468E-01   -0.18570E+00  1088   0.495E+00    0.612E-01
DAV:   2    -0.175416169589E+03   -0.75016E-01   -0.48452E-01  2176   0.607E+00    0.327E+00
DAV:   3    -0.175343428325E+03    0.72741E-01   -0.32015E-01  2176   0.514E+00    0.427E-01
DAV:   4    -0.175343231608E+03    0.19672E-03   -0.20671E-02  1728   0.115E+00    0.232E-01
DAV:   5    -0.175343549129E+03   -0.31752E-03   -0.74457E-03  1920   0.831E-01    0.373E-01
DAV:   6    -0.175342755614E+03    0.79351E-03   -0.76563E-03  1936   0.888E-01    0.204E-01
DAV:   7    -0.175342857595E+03   -0.10198E-03   -0.45122E-03  2144   0.576E-01    0.204E-01
DAV:   8    -0.175342451260E+03    0.40634E-03   -0.23275E-03  2128   0.413E-01    0.788E-02
DAV:   9    -0.175342429168E+03    0.22092E-04   -0.50279E-04  2144   0.199E-01    0.592E-02
DAV:  10    -0.175342420288E+03    0.88798E-05   -0.20835E-04  2064   0.135E-01    0.439E-02
DAV:  11    -0.175342408435E+03    0.11853E-04   -0.14563E-04  1920   0.975E-02    0.251E-02
DAV:  12    -0.175342405032E+03    0.34030E-05   -0.24774E-05   808   0.570E-02
  12 F= -.17534241E+03 E0= -.17528454E+03  d E =-.147293E-01
 trial-energy change:   -0.014729  1 .order   -0.014791   -0.017068   -0.012514
 step:   1.9286(harm=  1.9286)  dis= 0.05089  next Energy=  -175.359665 (dE=-0.320E-01)
 bond charge predicted
       N       E                     dE             d eps       ncg     rms          rms(c)
DAV:   1    -0.175350447813E+03   -0.80394E-02   -0.13989E+01  1088   0.135E+01    0.167E+00
DAV:   2    -0.175894688794E+03   -0.54424E+00   -0.35638E+00  2176   0.165E+01    0.867E+00
DAV:   3    -0.175365115144E+03    0.52957E+00   -0.23085E+00  2176   0.141E+01    0.111E+00
DAV:   4    -0.175365267244E+03   -0.15210E-03   -0.15513E-01  1736   0.313E+00    0.610E-01
DAV:   5    -0.175365827501E+03   -0.56026E-03   -0.55304E-02  2064   0.203E+00    0.836E-01
DAV:   6    -0.175362999216E+03    0.28283E-02   -0.59167E-02  2080   0.226E+00    0.686E-01
DAV:   7    -0.175362449952E+03    0.54926E-03   -0.32987E-02  2048   0.172E+00    0.574E-01
DAV:   8    -0.175359587339E+03    0.28626E-02   -0.17743E-02  2088   0.106E+00    0.180E-01
DAV:   9    -0.175359572122E+03    0.15217E-04   -0.36910E-03  2120   0.509E-01    0.172E-01
DAV:  10    -0.175359487664E+03    0.84458E-04   -0.19003E-03  2144   0.408E-01    0.137E-01
DAV:  11    -0.175359384439E+03    0.10322E-03   -0.10192E-03  2128   0.276E-01    0.698E-02
DAV:  12    -0.175359371057E+03    0.13382E-04   -0.36969E-04  2144   0.154E-01    0.462E-02
DAV:  13    -0.175359349831E+03    0.21226E-04   -0.16196E-04  1720   0.888E-02    0.133E-02
DAV:  14    -0.175359349341E+03    0.49023E-06   -0.16062E-05   664   0.410E-02
  13 F= -.17535935E+03 E0= -.17530140E+03  d E =-.316736E-01
 curvature:  -2.69 expect dE=-0.380E-01 dE for cont linesearch -0.881E-05
 trial: gam= 0.48500 g(F)=  0.126E-01 g(S)=  0.155E-02 ort =-0.551E-03 (trialstep = 0.797E+00)
 search vector abs. value=  0.354E-01
 bond charge predicted
       N       E                     dE             d eps       ncg     rms          rms(c)
DAV:   1    -0.175366919807E+03   -0.75700E-02   -0.16269E+00  1088   0.448E+00    0.354E-01
DAV:   2    -0.175382258422E+03   -0.15339E-01   -0.13892E-01  2160   0.282E+00    0.121E+00
DAV:   3    -0.175369855137E+03    0.12403E-01   -0.70250E-02  2176   0.231E+00    0.289E-01
DAV:   4    -0.175369916005E+03   -0.60868E-04   -0.98981E-03  2048   0.888E-01    0.298E-01
DAV:   5    -0.175369257157E+03    0.65885E-03   -0.64424E-03  2056   0.705E-01    0.220E-01
DAV:   6    -0.175369025941E+03    0.23122E-03   -0.48400E-03  2136   0.568E-01    0.153E-01
DAV:   7    -0.175368968027E+03    0.57914E-04   -0.20229E-03  2176   0.384E-01    0.142E-01
DAV:   8    -0.175368807786E+03    0.16024E-03   -0.82665E-04  2176   0.246E-01    0.303E-02
DAV:   9    -0.175368807155E+03    0.63165E-06   -0.10558E-04  1576   0.972E-02    0.258E-02
DAV:  10    -0.175368804965E+03    0.21892E-05   -0.35537E-05   984   0.743E-02
  14 F= -.17536880E+03 E0= -.17531046E+03  d E =-.945562E-02
 trial-energy change:   -0.009456  1 .order   -0.009451   -0.011056   -0.007847
 step:   2.7467(harm=  2.7467)  dis= 0.04839  next Energy=  -175.378393 (dE=-0.190E-01)
 bond charge predicted
       N       E                     dE             d eps       ncg     rms          rms(c)
DAV:   1    -0.175367236056E+03    0.15711E-02   -0.97402E+00  1088   0.110E+01    0.879E-01
DAV:   2    -0.175461302627E+03   -0.94067E-01   -0.85341E-01  2152   0.694E+00    0.298E+00
DAV:   3    -0.175385096026E+03    0.76207E-01   -0.43651E-01  2176   0.566E+00    0.706E-01
DAV:   4    -0.175385810289E+03   -0.71426E-03   -0.60551E-02  2040   0.219E+00    0.758E-01
DAV:   5    -0.175381841431E+03    0.39689E-02   -0.39539E-02  2048   0.176E+00    0.574E-01
DAV:   6    -0.175380491212E+03    0.13502E-02   -0.30756E-02  2136   0.150E+00    0.423E-01
DAV:   7    -0.175380186366E+03    0.30485E-03   -0.14318E-02  2152   0.107E+00    0.400E-01
DAV:   8    -0.175378916806E+03    0.12696E-02   -0.62341E-03  2144   0.686E-01    0.821E-02
DAV:   9    -0.175378923447E+03   -0.66407E-05   -0.94964E-04  2072   0.262E-01    0.740E-02
DAV:  10    -0.175378909044E+03    0.14402E-04   -0.39639E-04  2088   0.178E-01    0.614E-02
DAV:  11    -0.175378881640E+03    0.27405E-04   -0.18093E-04  1944   0.120E-01    0.202E-02
DAV:  12    -0.175378885271E+03   -0.36313E-05   -0.64847E-05  1352   0.685E-02
  15 F= -.17537889E+03 E0= -.17531901E+03  d E =-.195359E-01
 curvature:  -3.50 expect dE=-0.205E-01 dE for cont linesearch -0.304E-04
 trial: gam= 0.40313 g(F)=  0.530E-02 g(S)=  0.561E-03 ort = 0.554E-03 (trialstep = 0.119E+01)
 search vector abs. value=  0.121E-01
 bond charge predicted
       N       E                     dE             d eps       ncg     rms          rms(c)
DAV:   1    -0.175383128722E+03   -0.42471E-02   -0.13881E+00  1088   0.424E+00    0.326E-01
DAV:   2    -0.175392686952E+03   -0.95582E-02   -0.98301E-02  1840   0.223E+00    0.840E-01
DAV:   3    -0.175385493617E+03    0.71933E-02   -0.46836E-02  2160   0.176E+00    0.270E-01
DAV:   4    -0.175385806711E+03   -0.31309E-03   -0.86939E-03  2080   0.823E-01    0.348E-01
DAV:   5    -0.175385071352E+03    0.73536E-03   -0.61032E-03  2088   0.726E-01    0.198E-01
DAV:   6    -0.175384799549E+03    0.27180E-03   -0.47048E-03  2096   0.531E-01    0.116E-01
DAV:   7    -0.175384780664E+03    0.18886E-04   -0.18967E-03  2096   0.323E-01    0.125E-01
DAV:   8    -0.175384636282E+03    0.14438E-03   -0.93577E-04  2152   0.213E-01    0.319E-02
DAV:   9    -0.175384639414E+03   -0.31313E-05   -0.14596E-04  1944   0.102E-01    0.357E-02
DAV:  10    -0.175384635350E+03    0.40634E-05   -0.63006E-05  1336   0.853E-02
  16 F= -.17538464E+03 E0= -.17532411E+03  d E =-.575008E-02
 trial-energy change:   -0.005750  1 .order   -0.005756   -0.007224   -0.004288
 step:   2.9205(harm=  2.9205)  dis= 0.02697  next Energy=  -175.387771 (dE=-0.889E-02)
 bond charge predicted
       N       E                     dE             d eps       ncg     rms          rms(c)
DAV:   1    -0.175384572195E+03    0.67218E-04   -0.29619E+00  1088   0.620E+00    0.475E-01
DAV:   2    -0.175404835942E+03   -0.20264E-01   -0.20933E-01  1832   0.324E+00    0.121E+00
DAV:   3    -0.175389595667E+03    0.15240E-01   -0.98984E-02  2136   0.254E+00    0.385E-01
DAV:   4    -0.175390369160E+03   -0.77349E-03   -0.19031E-02  2104   0.119E+00    0.517E-01
DAV:   5    -0.175388753850E+03    0.16153E-02   -0.13337E-02  2096   0.107E+00    0.297E-01
DAV:   6    -0.175388169199E+03    0.58465E-03   -0.98983E-03  2112   0.794E-01    0.172E-01
DAV:   7    -0.175388181114E+03   -0.11914E-04   -0.43543E-03  2144   0.503E-01    0.204E-01
DAV:   8    -0.175387819732E+03    0.36138E-03   -0.22824E-03  2160   0.346E-01    0.538E-02
DAV:   9    -0.175387820219E+03   -0.48773E-06   -0.33270E-04  2120   0.157E-01    0.499E-02
DAV:  10    -0.175387818854E+03    0.13657E-05   -0.17808E-04  2000   0.119E-01    0.435E-02
DAV:  11    -0.175387801179E+03    0.17674E-04   -0.93081E-05  1496   0.870E-02    0.112E-02
DAV:  12    -0.175387802533E+03   -0.13537E-05   -0.18717E-05   696   0.400E-02
  17 F= -.17538780E+03 E0= -.17532633E+03  d E =-.891726E-02
 curvature:  -2.89 expect dE=-0.109E-01 dE for cont linesearch -0.176E-05
 trial: gam= 0.74974 g(F)=  0.258E-02 g(S)=  0.117E-02 ort = 0.856E-04 (trialstep = 0.153E+01)
 search vector abs. value=  0.107E-01
 bond charge predicted
       N       E                     dE             d eps       ncg     rms          rms(c)
DAV:   1    -0.175397190775E+03   -0.93896E-02   -0.16772E+00  1088   0.572E+00    0.138E+00
DAV:   2    -0.175789302910E+03   -0.39211E+00   -0.22727E+00  2160   0.138E+01    0.812E+00
DAV:   3    -0.175386346888E+03    0.40296E+00   -0.17916E+00  2176   0.122E+01    0.535E-01
DAV:   4    -0.175395949820E+03   -0.96029E-02   -0.12854E-01  1832   0.251E+00    0.788E-01
DAV:   5    -0.175392421044E+03    0.35288E-02   -0.34152E-02  2064   0.168E+00    0.475E-01
DAV:   6    -0.175391963552E+03    0.45749E-03   -0.17510E-02  2072   0.119E+00    0.405E-01
DAV:   7    -0.175391146905E+03    0.81665E-03   -0.77409E-03  2176   0.843E-01    0.259E-01
DAV:   8    -0.175390677295E+03    0.46961E-03   -0.37553E-03  2176   0.533E-01    0.108E-01
DAV:   9    -0.175390711565E+03   -0.34270E-04   -0.13149E-03  2064   0.328E-01    0.117E-01
DAV:  10    -0.175390606653E+03    0.10491E-03   -0.71525E-04  2064   0.229E-01    0.442E-02
DAV:  11    -0.175390589475E+03    0.17178E-04   -0.21820E-04  1736   0.103E-01    0.174E-02
DAV:  12    -0.175390591468E+03   -0.19930E-05   -0.48821E-05  1112   0.633E-02
  18 F= -.17539059E+03 E0= -.17532872E+03  d E =-.278893E-02
 trial-energy change:   -0.002789  1 .order   -0.002681   -0.005859    0.000497
 step:   1.4243(harm=  1.4139)  dis= 0.01047  next Energy=  -175.390609 (dE=-0.281E-02)
 bond charge predicted
       N       E                     dE             d eps       ncg     rms          rms(c)
DAV:   1    -0.175390641120E+03   -0.51645E-04   -0.86296E-03  1108   0.418E-01    0.100E-01
DAV:   2    -0.175392794228E+03   -0.21531E-02   -0.12506E-02  2160   0.102E+00    0.605E-01
DAV:   3    -0.175390586129E+03    0.22081E-02   -0.96997E-03  2160   0.868E-01    0.426E-02
DAV:   4    -0.175390620489E+03   -0.34360E-04   -0.55318E-04  1752   0.178E-01    0.534E-02
DAV:   5    -0.175390608079E+03    0.12410E-04   -0.15748E-04  1744   0.133E-01    0.330E-02
DAV:   6    -0.175390601974E+03    0.61047E-05   -0.79426E-05  1400   0.907E-02
  19 F= -.17539060E+03 E0= -.17532876E+03  d E =-.279944E-02
 curvature:  -1.96 expect dE=-0.125E-01 dE for cont linesearch -0.977E-05
 trial: gam= 1.77873 g(F)=  0.163E-02 g(S)=  0.475E-02 ort =-0.231E-03 (trialstep = 0.410E+00)
 search vector abs. value=  0.393E-01
 bond charge predicted
       N       E                     dE             d eps       ncg     rms          rms(c)
DAV:   1    -0.175392521683E+03   -0.19136E-02   -0.41779E-01  1088   0.238E+00    0.310E-01
DAV:   2    -0.175408356854E+03   -0.15835E-01   -0.10009E-01  2160   0.285E+00    0.154E+00
DAV:   3    -0.175392892480E+03    0.15464E-01   -0.65468E-02  2160   0.241E+00    0.198E-01
DAV:   4    -0.175393163886E+03   -0.27141E-03   -0.70327E-03  1968   0.687E-01    0.232E-01
DAV:   5    -0.175393092087E+03    0.71799E-04   -0.37845E-03  1992   0.621E-01    0.221E-01
DAV:   6    -0.175392747719E+03    0.34437E-03   -0.31872E-03  2064   0.476E-01    0.965E-02
DAV:   7    -0.175392821126E+03   -0.73407E-04   -0.16150E-03  2176   0.304E-01    0.143E-01
DAV:   8    -0.175392675301E+03    0.14583E-03   -0.80940E-04  2176   0.243E-01    0.378E-02
DAV:   9    -0.175392668276E+03    0.70248E-05   -0.11521E-04  1680   0.102E-01    0.210E-02
DAV:  10    -0.175392669054E+03   -0.77765E-06   -0.47243E-05  1032   0.709E-02
  20 F= -.17539267E+03 E0= -.17533055E+03  d E =-.206708E-02
 trial-energy change:   -0.002067  1 .order   -0.002079   -0.002449   -0.001709
 step:   1.3586(harm=  1.3586)  dis= 0.01985  next Energy=  -175.394656 (dE=-0.405E-02)
 bond charge predicted
       N       E                     dE             d eps       ncg     rms          rms(c)
DAV:   1    -0.175393739652E+03   -0.10714E-02   -0.22348E+00  1088   0.555E+00    0.713E-01
DAV:   2    -0.175477612941E+03   -0.83873E-01   -0.52516E-01  2144   0.658E+00    0.352E+00
DAV:   3    -0.175395823105E+03    0.81790E-01   -0.33914E-01  2144   0.547E+00    0.461E-01
DAV:   4    -0.175397607811E+03   -0.17847E-02   -0.39248E-02  2056   0.162E+00    0.585E-01
DAV:   5    -0.175396743940E+03    0.86387E-03   -0.20854E-02  2072   0.143E+00    0.489E-01
DAV:   6    -0.175395085336E+03    0.16586E-02   -0.18076E-02  2136   0.107E+00    0.236E-01
DAV:   7    -0.175395496212E+03   -0.41088E-03   -0.87477E-03  2176   0.730E-01    0.351E-01
DAV:   8    -0.175394634570E+03    0.86164E-03   -0.44476E-03  2176   0.583E-01    0.796E-02
DAV:   9    -0.175394623308E+03    0.11262E-04   -0.73305E-04  2016   0.235E-01    0.579E-02
DAV:  10    -0.175394613458E+03    0.98501E-05   -0.32008E-04  2000   0.149E-01    0.466E-02
DAV:  11    -0.175394588295E+03    0.25163E-04   -0.16989E-04  1624   0.971E-02    0.128E-02
DAV:  12    -0.175394590262E+03   -0.19667E-05   -0.29999E-05   856   0.513E-02
  21 F= -.17539459E+03 E0= -.17533189E+03  d E =-.398829E-02
 curvature:  -4.47 expect dE=-0.132E-01 dE for cont linesearch -0.202E-06
 trial: gam= 0.32356 g(F)=  0.255E-02 g(S)=  0.404E-03 ort = 0.421E-04 (trialstep = 0.600E+00)
 search vector abs. value=  0.709E-02
 bond charge predicted
       N       E                     dE             d eps       ncg     rms          rms(c)
DAV:   1    -0.175396181160E+03   -0.15929E-02   -0.16873E-01  1088   0.155E+00    0.238E-01
DAV:   2    -0.175406426933E+03   -0.10246E-01   -0.67082E-02  2160   0.226E+00    0.122E+00
DAV:   3    -0.175396289409E+03    0.10138E-01   -0.48074E-02  2160   0.194E+00    0.175E-01
DAV:   4    -0.175396251305E+03    0.38104E-04   -0.31913E-03  1872   0.473E-01    0.100E-01
DAV:   5    -0.175396325852E+03   -0.74547E-04   -0.15514E-03  2096   0.355E-01    0.162E-01
DAV:   6    -0.175396161420E+03    0.16443E-03   -0.13445E-03  2096   0.325E-01    0.643E-02
DAV:   7    -0.175396186547E+03   -0.25127E-04   -0.51383E-04  2152   0.200E-01    0.780E-02
DAV:   8    -0.175396129258E+03    0.57289E-04   -0.31307E-04  2072   0.147E-01    0.269E-02
DAV:   9    -0.175396124967E+03    0.42918E-05   -0.35670E-05   968   0.692E-02
  22 F= -.17539612E+03 E0= -.17533320E+03  d E =-.153470E-02
 trial-energy change:   -0.001535  1 .order   -0.001544   -0.001778   -0.001311
 step:   2.2870(harm=  2.2870)  dis= 0.01688  next Energy=  -175.397978 (dE=-0.339E-02)
 bond charge predicted
       N       E                     dE             d eps       ncg     rms          rms(c)
DAV:   1    -0.175398642243E+03   -0.25130E-02   -0.13384E+00  1088   0.440E+00    0.672E-01
DAV:   2    -0.175481203107E+03   -0.82561E-01   -0.53728E-01  2160   0.640E+00    0.348E+00
DAV:   3    -0.175399540173E+03    0.81663E-01   -0.38685E-01  2160   0.545E+00    0.497E-01
DAV:   4    -0.175399275430E+03    0.26474E-03   -0.25780E-02  1912   0.133E+00    0.290E-01
DAV:   5    -0.175399812201E+03   -0.53677E-03   -0.12457E-02  2112   0.100E+00    0.454E-01
DAV:   6    -0.175398546920E+03    0.12653E-02   -0.10594E-02  2112   0.908E-01    0.184E-01
DAV:   7    -0.175398732363E+03   -0.18544E-03   -0.40820E-03  2168   0.560E-01    0.211E-01
DAV:   8    -0.175398266225E+03    0.46614E-03   -0.25513E-03  2168   0.394E-01    0.566E-02
DAV:   9    -0.175398277549E+03   -0.11325E-04   -0.59204E-04  1944   0.173E-01    0.621E-02
DAV:  10    -0.175398268647E+03    0.89019E-05   -0.29799E-04  2000   0.154E-01    0.576E-02
DAV:  11    -0.175398243280E+03    0.25367E-04   -0.13532E-04  1752   0.108E-01    0.147E-02
DAV:  12    -0.175398244649E+03   -0.13693E-05   -0.25752E-05   768   0.533E-02
  23 F= -.17539824E+03 E0= -.17533485E+03  d E =-.365439E-02
 curvature:  -2.74 expect dE=-0.132E-01 dE for cont linesearch -0.506E-04
 trial: gam= 1.57735 g(F)=  0.105E-02 g(S)=  0.378E-02 ort = 0.362E-03 (trialstep = 0.281E+00)
 search vector abs. value=  0.236E-01
 bond charge predicted
       N       E                     dE             d eps       ncg     rms          rms(c)
DAV:   1    -0.175400095950E+03   -0.18527E-02   -0.12484E-01  1088   0.155E+00    0.374E-01
DAV:   2    -0.175430000214E+03   -0.29904E-01   -0.17428E-01  2176   0.384E+00    0.223E+00
DAV:   3    -0.175399467703E+03    0.30533E-01   -0.13592E-01  2176   0.330E+00    0.179E-01
DAV:   4    -0.175399838205E+03   -0.37050E-03   -0.78918E-03  1752   0.658E-01    0.152E-01
DAV:   5    -0.175399872614E+03   -0.34409E-04   -0.22781E-03  1968   0.473E-01    0.173E-01
DAV:   6    -0.175399688294E+03    0.18432E-03   -0.14714E-03  1976   0.368E-01    0.749E-02
DAV:   7    -0.175399718738E+03   -0.30444E-04   -0.60591E-04  2144   0.223E-01    0.991E-02
DAV:   8    -0.175399652887E+03    0.65851E-04   -0.38390E-04  2080   0.182E-01    0.382E-02
DAV:   9    -0.175399647366E+03    0.55202E-05   -0.10636E-04  1632   0.924E-02    0.272E-02
DAV:  10    -0.175399645143E+03    0.22237E-05   -0.33209E-05   872   0.625E-02
  24 F= -.17539965E+03 E0= -.17533621E+03  d E =-.140049E-02
 trial-energy change:   -0.001400  1 .order   -0.001321   -0.001521   -0.001121
 step:   1.0702(harm=  1.0702)  dis= 0.01352  next Energy=  -175.401136 (dE=-0.289E-02)
 bond charge predicted
       N       E                     dE             d eps       ncg     rms          rms(c)
DAV:   1    -0.175405053857E+03   -0.54065E-02   -0.97677E-01  1088   0.431E+00    0.104E+00
DAV:   2    -0.175633031563E+03   -0.22798E+00   -0.13410E+00  2176   0.107E+01    0.612E+00
DAV:   3    -0.175399597574E+03    0.23343E+00   -0.10435E+00  2176   0.926E+00    0.479E-01
DAV:   4    -0.175402989942E+03   -0.33924E-02   -0.64744E-02  1760   0.185E+00    0.420E-01
DAV:   5    -0.175403161435E+03   -0.17149E-03   -0.18327E-02  2000   0.128E+00    0.483E-01
DAV:   6    -0.175401817527E+03    0.13439E-02   -0.11687E-02  2008   0.103E+00    0.232E-01
DAV:   7    -0.175401914988E+03   -0.97461E-04   -0.45831E-03  2128   0.623E-01    0.263E-01
DAV:   8    -0.175401459085E+03    0.45590E-03   -0.29143E-03  2128   0.494E-01    0.111E-01
DAV:   9    -0.175401431324E+03    0.27761E-04   -0.92353E-04  2120   0.262E-01    0.917E-02
DAV:  10    -0.175401399492E+03    0.31832E-04   -0.39853E-04  2088   0.168E-01    0.518E-02
DAV:  11    -0.175401374890E+03    0.24602E-04   -0.21615E-04  1736   0.108E-01    0.211E-02
DAV:  12    -0.175401377219E+03   -0.23286E-05   -0.74225E-05  1440   0.646E-02
  25 F= -.17540138E+03 E0= -.17533797E+03  d E =-.313257E-02
 curvature:  -2.34 expect dE=-0.854E-02 dE for cont linesearch -0.489E-06
 trial: gam= 1.00004 g(F)=  0.184E-02 g(S)=  0.181E-02 ort =-0.702E-04 (trialstep = 0.382E+00)
 search vector abs. value=  0.271E-01
 bond charge predicted
       N       E                     dE             d eps       ncg     rms          rms(c)
DAV:   1    -0.175402526835E+03   -0.11519E-02   -0.24388E-01  1088   0.171E+00    0.154E-01
DAV:   2    -0.175405285573E+03   -0.27587E-02   -0.24634E-02  2056   0.118E+00    0.495E-01
DAV:   3    -0.175402956129E+03    0.23294E-02   -0.13276E-02  2152   0.992E-01    0.139E-01
DAV:   4    -0.175402946825E+03    0.93038E-05   -0.21906E-03  2128   0.387E-01    0.125E-01
DAV:   5    -0.175402938687E+03    0.81382E-05   -0.15492E-03  2176   0.344E-01    0.154E-01
DAV:   6    -0.175402767204E+03    0.17148E-03   -0.12826E-03  2160   0.291E-01    0.515E-02
DAV:   7    -0.175402799552E+03   -0.32347E-04   -0.48299E-04  2176   0.179E-01    0.804E-02
DAV:   8    -0.175402748676E+03    0.50875E-04   -0.25319E-04  2080   0.139E-01    0.186E-02
DAV:   9    -0.175402744740E+03    0.39369E-05   -0.19230E-05   768   0.481E-02
  26 F= -.17540274E+03 E0= -.17533941E+03  d E =-.136752E-02
 ZBRENT: can't locate minimum, use default step
 trial-energy change:   -0.001368  1 .order   -0.001352   -0.001369   -0.001336
 step:   1.5292(harm= 15.5697)  dis= 0.02004  next Energy=  -175.429258 (dE=-0.279E-01)
 bond charge predicted
       N       E                     dE             d eps       ncg     rms          rms(c)
DAV:   1    -0.175404579691E+03   -0.18310E-02   -0.21944E+00  1088   0.511E+00    0.464E-01
DAV:   2    -0.175429974970E+03   -0.25395E-01   -0.22758E-01  2080   0.358E+00    0.152E+00
DAV:   3    -0.175408424138E+03    0.21551E-01   -0.12368E-01  2160   0.300E+00    0.418E-01
DAV:   4    -0.175408331158E+03    0.92979E-04   -0.19591E-02  2072   0.117E+00    0.373E-01
DAV:   5    -0.175408342052E+03   -0.10894E-04   -0.14419E-02  2160   0.105E+00    0.477E-01
DAV:   6    -0.175406733139E+03    0.16089E-02   -0.11813E-02  2144   0.885E-01    0.163E-01
DAV:   7    -0.175406985979E+03   -0.25284E-03   -0.44715E-03  2176   0.544E-01    0.231E-01
DAV:   8    -0.175406567087E+03    0.41889E-03   -0.22755E-03  2168   0.413E-01    0.611E-02
DAV:   9    -0.175406536370E+03    0.30717E-04   -0.36512E-04  2032   0.150E-01    0.263E-02
DAV:  10    -0.175406540981E+03   -0.46112E-05   -0.89923E-05  1568   0.852E-02
  27 F= -.17540654E+03 E0= -.17534370E+03  d E =-.516376E-02
 curvature:  -8.57 expect dE=-0.455E-01 dE for cont linesearch -0.281E-02
 ZBRENT: increasing intervall
 opt :   3.8231  next Energy=  -175.412201 (dE=-0.108E-01)
 bond charge predicted
       N       E                     dE             d eps       ncg     rms          rms(c)
DAV:   1    -0.175404047305E+03    0.24891E-02   -0.87861E+00  1088   0.102E+01    0.935E-01
DAV:   2    -0.175504980868E+03   -0.10093E+00   -0.91523E-01  2048   0.713E+00    0.299E+00
DAV:   3    -0.175419451266E+03    0.85530E-01   -0.49294E-01  2152   0.592E+00    0.823E-01
DAV:   4    -0.175419341978E+03    0.10929E-03   -0.78043E-02  2104   0.236E+00    0.755E-01
DAV:   5    -0.175418767258E+03    0.57472E-03   -0.55948E-02  2152   0.210E+00    0.919E-01
DAV:   6    -0.175412862203E+03    0.59051E-02   -0.44294E-02  2152   0.172E+00    0.325E-01
DAV:   7    -0.175413808949E+03   -0.94675E-03   -0.18365E-02  2176   0.108E+00    0.447E-01
DAV:   8    -0.175412183579E+03    0.16254E-02   -0.93574E-03  2176   0.827E-01    0.132E-01
DAV:   9    -0.175412041636E+03    0.14194E-03   -0.14795E-03  2112   0.314E-01    0.540E-02
DAV:  10    -0.175412071249E+03   -0.29613E-04   -0.43082E-04  2112   0.181E-01    0.791E-02
DAV:  11    -0.175412026420E+03    0.44829E-04   -0.29458E-04  2064   0.153E-01    0.281E-02
DAV:  12    -0.175412025785E+03    0.63576E-06   -0.69922E-05  1440   0.845E-02
  28 F= -.17541203E+03 E0= -.17535112E+03  d E =-.106486E-01
 curvature: -17.28 expect dE=-0.193E+00 dE for cont linesearch -0.146E-02
 ZBRENT: increasing intervall
 opt :   8.4107  next Energy=  -175.412259 (dE=-0.109E-01)
 bond charge predicted
       N       E                     dE             d eps       ncg     rms          rms(c)
DAV:   1    -0.175370079355E+03    0.41947E-01   -0.35256E+01  1088   0.207E+01    0.191E+00
DAV:   2    -0.175776638461E+03   -0.40656E+00   -0.37788E+00  1936   0.143E+01    0.581E+00
DAV:   3    -0.175431347821E+03    0.34529E+00   -0.19691E+00  2144   0.116E+01    0.153E+00
DAV:   4    -0.175435329481E+03   -0.39817E-02   -0.31839E-01  2072   0.473E+00    0.157E+00
DAV:   5    -0.175425768672E+03    0.95608E-02   -0.20599E-01  2128   0.418E+00    0.166E+00
DAV:   6    -0.175408443868E+03    0.17325E-01   -0.15018E-01  2128   0.331E+00    0.694E-01
DAV:   7    -0.175412053397E+03   -0.36095E-02   -0.78623E-02  2176   0.220E+00    0.898E-01
DAV:   8    -0.175404889368E+03    0.71640E-02   -0.41824E-02  2176   0.171E+00    0.276E-01
DAV:   9    -0.175404375277E+03    0.51409E-03   -0.59287E-03  2136   0.651E-01    0.117E-01
DAV:  10    -0.175404458564E+03   -0.83287E-04   -0.17437E-03  2128   0.350E-01    0.140E-01
DAV:  11    -0.175404298258E+03    0.16031E-03   -0.11418E-03  2160   0.278E-01    0.526E-02
DAV:  12    -0.175404313187E+03   -0.14929E-04   -0.36906E-04  2080   0.178E-01    0.637E-02
DAV:  13    -0.175404283834E+03    0.29353E-04   -0.18285E-04  1984   0.125E-01    0.198E-02
DAV:  14    -0.175404279987E+03    0.38467E-05   -0.35117E-05  1016   0.519E-02
  29 F= -.17540428E+03 E0= -.17534652E+03  d E =-.290277E-02
 curvature:  -2.75 expect dE=-0.108E+00 dE for cont linesearch -0.375E-02
 ZBRENT: bracketing found
 ZBRENT: interpolating
 opt :   4.7379  next Energy=  -175.412719 (dE=-0.113E-01)
 bond charge predicted
       N       E                     dE             d eps       ncg     rms          rms(c)
DAV:   1    -0.175389710782E+03    0.14573E-01   -0.22650E+01  1088   0.168E+01    0.153E+00
DAV:   2    -0.175640323128E+03   -0.25061E+00   -0.23581E+00  2104   0.119E+01    0.481E+00
DAV:   3    -0.175433187015E+03    0.20714E+00   -0.12319E+00  2152   0.979E+00    0.145E+00
DAV:   4    -0.175431425022E+03    0.17620E-02   -0.20556E-01  2136   0.378E+00    0.122E+00
DAV:   5    -0.175425568207E+03    0.58568E-02   -0.12161E-01  2152   0.289E+00    0.120E+00
DAV:   6    -0.175417278702E+03    0.82895E-02   -0.10926E-01  2160   0.267E+00    0.710E-01
DAV:   7    -0.175420153460E+03   -0.28748E-02   -0.57032E-02  2168   0.207E+00    0.885E-01
DAV:   8    -0.175413254934E+03    0.68985E-02   -0.34580E-02  2168   0.154E+00    0.163E-01
DAV:   9    -0.175413128306E+03    0.12663E-03   -0.37224E-03  1840   0.457E-01    0.935E-02
DAV:  10    -0.175413169450E+03   -0.41144E-04   -0.11294E-03  2112   0.301E-01    0.109E-01
DAV:  11    -0.175413069915E+03    0.99535E-04   -0.69810E-04  2144   0.226E-01    0.452E-02
DAV:  12    -0.175413081499E+03   -0.11584E-04   -0.21449E-04  2064   0.140E-01    0.563E-02
DAV:  13    -0.175413058665E+03    0.22834E-04   -0.12704E-04  1984   0.106E-01    0.141E-02
DAV:  14    -0.175413058070E+03    0.59575E-06   -0.18445E-05   752   0.436E-02
  30 F= -.17541306E+03 E0= -.17535302E+03  d E =-.116809E-01
 curvature:  -0.51 expect dE=-0.715E-02 dE for cont linesearch -0.680E-05
 trial: gam= 2.68848 g(F)=  0.735E-02 g(S)=  0.672E-02 ort = 0.603E-03 (trialstep = 0.159E+00)
 search vector abs. value=  0.213E+00
 bond charge predicted
       N       E                     dE             d eps       ncg     rms          rms(c)
DAV:   1    -0.175415390001E+03   -0.23313E-02   -0.33549E-01  1088   0.219E+00    0.338E-01
DAV:   2    -0.175436197549E+03   -0.20808E-01   -0.12987E-01  2160   0.321E+00    0.181E+00
DAV:   3    -0.175415453495E+03    0.20744E-01   -0.91622E-02  2160   0.272E+00    0.182E-01
DAV:   4    -0.175415818873E+03   -0.36538E-03   -0.70930E-03  1880   0.667E-01    0.223E-01
DAV:   5    -0.175415670147E+03    0.14873E-03   -0.31715E-03  1920   0.589E-01    0.184E-01
DAV:   6    -0.175415475814E+03    0.19433E-03   -0.22943E-03  1936   0.444E-01    0.105E-01
DAV:   7    -0.175415506778E+03   -0.30965E-04   -0.12579E-03  2160   0.301E-01    0.126E-01
DAV:   8    -0.175415384627E+03    0.12215E-03   -0.66603E-04  2144   0.223E-01    0.348E-02
DAV:   9    -0.175415379862E+03    0.47650E-05   -0.98840E-05  1592   0.976E-02
  31 F= -.17541538E+03 E0= -.17535564E+03  d E =-.232179E-02
 ZBRENT: can't locate minimum, use default step
 trial-energy change:   -0.002322  1 .order   -0.002305   -0.002501   -0.002109
 step:   0.6374(harm=  1.0160)  dis= 0.02418  next Energy=  -175.421032 (dE=-0.797E-02)
 bond charge predicted
       N       E                     dE             d eps       ncg     rms          rms(c)
DAV:   1    -0.175420150114E+03   -0.47655E-02   -0.30312E+00  1088   0.664E+00    0.102E+00
DAV:   2    -0.175612283338E+03   -0.19213E+00   -0.12083E+00  2160   0.974E+00    0.549E+00
DAV:   3    -0.175420873166E+03    0.19141E+00   -0.83777E-01  2160   0.808E+00    0.566E-01
DAV:   4    -0.175424133633E+03   -0.32605E-02   -0.66029E-02  1912   0.203E+00    0.674E-01
DAV:   5    -0.175422845711E+03    0.12879E-02   -0.29959E-02  1952   0.178E+00    0.565E-01
DAV:   6    -0.175420951015E+03    0.18947E-02   -0.20709E-02  1960   0.134E+00    0.303E-01
DAV:   7    -0.175421345729E+03   -0.39471E-03   -0.11511E-02  2136   0.909E-01    0.379E-01
DAV:   8    -0.175420207520E+03    0.11382E-02   -0.62371E-03  2136   0.686E-01    0.111E-01
DAV:   9    -0.175420165505E+03    0.42015E-04   -0.11133E-03  2104   0.301E-01    0.797E-02
DAV:  10    -0.175420174271E+03   -0.87659E-05   -0.71802E-04  2120   0.221E-01    0.781E-02
DAV:  11    -0.175420103306E+03    0.70966E-04   -0.50345E-04  1744   0.157E-01    0.199E-02
DAV:  12    -0.175420111400E+03   -0.80944E-05   -0.10963E-04  1592   0.763E-02    0.307E-02
DAV:  13    -0.175420101538E+03    0.98619E-05   -0.26648E-05   832   0.585E-02
  32 F= -.17542010E+03 E0= -.17536111E+03  d E =-.704347E-02
 curvature:  -5.56 expect dE=-0.568E-01 dE for cont linesearch -0.963E-03
 ZBRENT: increasing intervall
 opt :   1.5934  next Energy=  -175.419076 (dE=-0.602E-02)
 bond charge predicted
       N       E                     dE             d eps       ncg     rms          rms(c)
DAV:   1    -0.175417253910E+03    0.28575E-02   -0.12195E+01  1088   0.135E+01    0.206E+00
DAV:   2    -0.176200836051E+03   -0.78358E+00   -0.49971E+00  2160   0.196E+01    0.111E+01
DAV:   3    -0.175420593223E+03    0.78024E+00   -0.33628E+00  2160   0.157E+01    0.120E+00
DAV:   4    -0.175435375933E+03   -0.14783E-01   -0.29947E-01  2080   0.414E+00    0.141E+00
DAV:   5    -0.175428561956E+03    0.68140E-02   -0.12684E-01  2128   0.339E+00    0.116E+00
DAV:   6    -0.175420900716E+03    0.76612E-02   -0.88938E-02  2128   0.259E+00    0.602E-01
DAV:   7    -0.175422486542E+03   -0.15858E-02   -0.42757E-02  2144   0.176E+00    0.760E-01
DAV:   8    -0.175417864033E+03    0.46225E-02   -0.25053E-02  2144   0.137E+00    0.218E-01
DAV:   9    -0.175417813274E+03    0.50759E-04   -0.51741E-03  2144   0.636E-01    0.189E-01
DAV:  10    -0.175417722115E+03    0.91158E-04   -0.29341E-03  2104   0.469E-01    0.147E-01
DAV:  11    -0.175417467805E+03    0.25431E-03   -0.17442E-03  1760   0.292E-01    0.369E-02
DAV:  12    -0.175417498233E+03   -0.30427E-04   -0.39295E-04  2096   0.144E-01    0.603E-02
DAV:  13    -0.175417469207E+03    0.29026E-04   -0.18645E-04  1928   0.106E-01    0.176E-02
DAV:  14    -0.175417468298E+03    0.90869E-06   -0.29387E-05   872   0.502E-02
  33 F= -.17541747E+03 E0= -.17535886E+03  d E =-.441023E-02
 curvature:   5.92 expect dE= 0.231E+00 dE for cont linesearch  0.450E-02
 ZBRENT: bracketing found
 ZBRENT: interpolating
 opt :   0.9463  next Energy=  -175.421041 (dE=-0.798E-02)
 bond charge predicted
       N       E                     dE             d eps       ncg     rms          rms(c)
DAV:   1    -0.175421875377E+03   -0.44062E-02   -0.54919E+00  1088   0.864E+00    0.136E+00
DAV:   2    -0.175753008385E+03   -0.33113E+00   -0.20654E+00  2160   0.128E+01    0.719E+00
DAV:   3    -0.175421263076E+03    0.33175E+00   -0.15157E+00  2160   0.113E+01    0.711E-01
DAV:   4    -0.175429162077E+03   -0.78990E-02   -0.13056E-01  1944   0.277E+00    0.982E-01
DAV:   5    -0.175425726278E+03    0.34358E-02   -0.52350E-02  2000   0.230E+00    0.695E-01
DAV:   6    -0.175423023718E+03    0.27026E-02   -0.42028E-02  2096   0.173E+00    0.444E-01
DAV:   7    -0.175422913404E+03    0.11031E-03   -0.17689E-02  2160   0.110E+00    0.451E-01
DAV:   8    -0.175421319169E+03    0.15942E-02   -0.90572E-03  2176   0.804E-01    0.129E-01
DAV:   9    -0.175421324311E+03   -0.51419E-05   -0.18035E-03  2112   0.388E-01    0.124E-01
DAV:  10    -0.175421287226E+03    0.37086E-04   -0.12533E-03  2120   0.305E-01    0.986E-02
DAV:  11    -0.175421185396E+03    0.10183E-03   -0.80611E-04  1760   0.198E-01    0.347E-02
DAV:  12    -0.175421196430E+03   -0.11034E-04   -0.20218E-04  1944   0.996E-02    0.414E-02
DAV:  13    -0.175421179675E+03    0.16755E-04   -0.82433E-05  1376   0.730E-02    0.120E-02
DAV:  14    -0.175421179638E+03    0.37793E-07   -0.16018E-05   656   0.329E-02
  34 F= -.17542118E+03 E0= -.17536247E+03  d E =-.812157E-02
 curvature:  -1.24 expect dE=-0.181E-01 dE for cont linesearch -0.334E-05
 trial: gam= 0.69655 g(F)=  0.943E-02 g(S)=  0.521E-02 ort = 0.760E-03 (trialstep = 0.317E+00)
 search vector abs. value=  0.119E+00
 bond charge predicted
       N       E                     dE             d eps       ncg     rms          rms(c)
DAV:   1    -0.175425122669E+03   -0.39430E-02   -0.78462E-01  1088   0.320E+00    0.350E-01
DAV:   2    -0.175442566950E+03   -0.17444E-01   -0.11618E-01  2160   0.292E+00    0.161E+00
DAV:   3    -0.175426062039E+03    0.16505E-01   -0.74979E-02  2144   0.253E+00    0.225E-01
DAV:   4    -0.175426664206E+03   -0.60217E-03   -0.11551E-02  2128   0.821E-01    0.324E-01
DAV:   5    -0.175426298978E+03    0.36523E-03   -0.76420E-03  2152   0.796E-01    0.303E-01
DAV:   6    -0.175425710686E+03    0.58829E-03   -0.49233E-03  2144   0.619E-01    0.113E-01
DAV:   7    -0.175425721500E+03   -0.10814E-04   -0.15106E-03  2168   0.300E-01    0.114E-01
DAV:   8    -0.175425607118E+03    0.11438E-03   -0.66226E-04  2176   0.221E-01    0.321E-02
DAV:   9    -0.175425608779E+03   -0.16609E-05   -0.13843E-04  1824   0.107E-01    0.321E-02
DAV:  10    -0.175425601351E+03    0.74273E-05   -0.42884E-05  1040   0.796E-02
  35 F= -.17542560E+03 E0= -.17536693E+03  d E =-.442171E-02
 ZBRENT: can't locate minimum, use default step
 trial-energy change:   -0.004422  1 .order   -0.004399   -0.004807   -0.003991
 step:   1.2670(harm=  1.8668)  dis= 0.03691  next Energy=  -175.435345 (dE=-0.142E-01)
 bond charge predicted
       N       E                     dE             d eps       ncg     rms          rms(c)
DAV:   1    -0.175429784754E+03   -0.41760E-02   -0.70653E+00  1088   0.956E+00    0.106E+00
DAV:   2    -0.175583654312E+03   -0.15387E+00   -0.10434E+00  2160   0.865E+00    0.476E+00
DAV:   3    -0.175437747724E+03    0.14591E+00   -0.67865E-01  2144   0.768E+00    0.671E-01
DAV:   4    -0.175443098575E+03   -0.53509E-02   -0.10487E-01  2096   0.249E+00    0.953E-01
DAV:   5    -0.175439877287E+03    0.32213E-02   -0.70979E-02  2160   0.237E+00    0.901E-01
DAV:   6    -0.175434767354E+03    0.51099E-02   -0.43805E-02  2144   0.187E+00    0.368E-01
DAV:   7    -0.175435006991E+03   -0.23964E-03   -0.15432E-02  2168   0.994E-01    0.383E-01
DAV:   8    -0.175433750198E+03    0.12568E-02   -0.67705E-03  2176   0.741E-01    0.111E-01
DAV:   9    -0.175433712000E+03    0.38198E-04   -0.14358E-03  2048   0.324E-01    0.750E-02
DAV:  10    -0.175433701782E+03    0.10217E-04   -0.56438E-04  2016   0.201E-01    0.674E-02
DAV:  11    -0.175433658810E+03    0.42973E-04   -0.38601E-04  2136   0.149E-01    0.285E-02
DAV:  12    -0.175433664700E+03   -0.58903E-05   -0.11517E-04  1760   0.902E-02    0.338E-02
DAV:  13    -0.175433651959E+03    0.12741E-04   -0.43142E-05  1008   0.634E-02    0.987E-03
DAV:  14    -0.175433653152E+03   -0.11937E-05   -0.25544E-05   752   0.304E-02
  36 F= -.17543365E+03 E0= -.17537482E+03  d E =-.124735E-01
 curvature:  -6.24 expect dE=-0.430E-01 dE for cont linesearch -0.815E-03
 ZBRENT: extrapolating
 opt :   1.7006  next Energy=  -175.434509 (dE=-0.133E-01)
 bond charge predicted
       N       E                     dE             d eps       ncg     rms          rms(c)
DAV:   1    -0.175433681242E+03   -0.29283E-04   -0.14741E+00  1088   0.438E+00    0.481E-01
DAV:   2    -0.175465344711E+03   -0.31663E-01   -0.21475E-01  2152   0.394E+00    0.215E+00
DAV:   3    -0.175435419276E+03    0.29925E-01   -0.13888E-01  2144   0.345E+00    0.312E-01
DAV:   4    -0.175436467657E+03   -0.10484E-02   -0.21442E-02  2112   0.112E+00    0.430E-01
DAV:   5    -0.175435708859E+03    0.75880E-03   -0.14768E-02  2160   0.107E+00    0.400E-01
DAV:   6    -0.175434768013E+03    0.94085E-03   -0.84260E-03  2136   0.840E-01    0.172E-01
DAV:   7    -0.175434797917E+03   -0.29904E-04   -0.31921E-03  2168   0.453E-01    0.170E-01
DAV:   8    -0.175434537283E+03    0.26063E-03   -0.14390E-03  2176   0.331E-01    0.489E-02
DAV:   9    -0.175434531192E+03    0.60918E-05   -0.28745E-04  2000   0.145E-01    0.354E-02
DAV:  10    -0.175434527414E+03    0.37775E-05   -0.11075E-04  1472   0.955E-02    0.298E-02
DAV:  11    -0.175434517290E+03    0.10124E-04   -0.61003E-05  1200   0.696E-02    0.112E-02
DAV:  12    -0.175434518368E+03   -0.10787E-05   -0.20598E-05   672   0.440E-02
  37 F= -.17543452E+03 E0= -.17537550E+03  d E =-.133387E-01
 curvature:  -6.55 expect dE=-0.541E-01 dE for cont linesearch -0.122E-05
 trial: gam= 0.27774 g(F)=  0.753E-02 g(S)=  0.735E-03 ort =-0.149E-03 (trialstep = 0.594E+00)
 search vector abs. value=  0.174E-01
 bond charge predicted
       N       E                     dE             d eps       ncg     rms          rms(c)
DAV:   1    -0.175438394783E+03   -0.38775E-02   -0.51094E-01  1088   0.261E+00    0.278E-01
DAV:   2    -0.175454457967E+03   -0.16063E-01   -0.10492E-01  2160   0.283E+00    0.146E+00
DAV:   3    -0.175439095801E+03    0.15362E-01   -0.68948E-02  2152   0.235E+00    0.207E-01
DAV:   4    -0.175439157305E+03   -0.61504E-04   -0.49780E-03  1816   0.568E-01    0.158E-01
DAV:   5    -0.175439125493E+03    0.31812E-04   -0.15939E-03  1896   0.408E-01    0.148E-01
DAV:   6    -0.175439012999E+03    0.11249E-03   -0.19666E-03  2024   0.339E-01    0.113E-01
DAV:   7    -0.175439123648E+03   -0.11065E-03   -0.19651E-03  2128   0.355E-01    0.178E-01
DAV:   8    -0.175438907631E+03    0.21602E-03   -0.12055E-03  2128   0.306E-01    0.454E-02
DAV:   9    -0.175438897001E+03    0.10630E-04   -0.15370E-04  1744   0.116E-01    0.294E-02
DAV:  10    -0.175438897777E+03   -0.77634E-06   -0.82958E-05  1496   0.768E-02
  38 F= -.17543890E+03 E0= -.17537973E+03  d E =-.437941E-02
 ZBRENT: can't locate minimum, use default step
 trial-energy change:   -0.004379  1 .order   -0.004384   -0.004879   -0.003890
 step:   2.3740(harm=  2.9285)  dis= 0.02368  next Energy=  -175.446554 (dE=-0.120E-01)
 bond charge predicted
       N       E                     dE             d eps       ncg     rms          rms(c)
DAV:   1    -0.175441320504E+03   -0.24235E-02   -0.46168E+00  1088   0.791E+00    0.827E-01
DAV:   2    -0.175580872542E+03   -0.13955E+00   -0.93406E-01  2144   0.837E+00    0.428E+00
DAV:   3    -0.175448223135E+03    0.13265E+00   -0.60170E-01  2136   0.686E+00    0.638E-01
DAV:   4    -0.175448541695E+03   -0.31856E-03   -0.44938E-02  1872   0.171E+00    0.474E-01
DAV:   5    -0.175448317749E+03    0.22395E-03   -0.14790E-02  1952   0.123E+00    0.462E-01
DAV:   6    -0.175447190840E+03    0.11269E-02   -0.17884E-02  2016   0.103E+00    0.332E-01
DAV:   7    -0.175448245941E+03   -0.10551E-02   -0.17466E-02  2144   0.106E+00    0.531E-01
DAV:   8    -0.175446289325E+03    0.19566E-02   -0.10838E-02  2144   0.917E-01    0.139E-01
DAV:   9    -0.175446178385E+03    0.11094E-03   -0.14325E-03  1976   0.352E-01    0.827E-02
DAV:  10    -0.175446202602E+03   -0.24217E-04   -0.84295E-04  2144   0.223E-01    0.815E-02
DAV:  11    -0.175446134360E+03    0.68243E-04   -0.44579E-04  1888   0.155E-01    0.234E-02
DAV:  12    -0.175446140193E+03   -0.58336E-05   -0.11256E-04  1576   0.767E-02    0.309E-02
DAV:  13    -0.175446131440E+03    0.87527E-05   -0.26647E-05   864   0.595E-02
  39 F= -.17544613E+03 E0= -.17538671E+03  d E =-.116131E-01
 curvature:  -2.92 expect dE=-0.188E-01 dE for cont linesearch -0.462E-03
 ZBRENT: extrapolating
 opt :   2.9769  next Energy=  -175.446631 (dE=-0.121E-01)
 bond charge predicted
       N       E                     dE             d eps       ncg     rms          rms(c)
DAV:   1    -0.175446123661E+03    0.16532E-04   -0.52769E-01  1088   0.265E+00    0.282E-01
DAV:   2    -0.175462678666E+03   -0.16555E-01   -0.10912E-01  2160   0.286E+00    0.148E+00
DAV:   3    -0.175446853172E+03    0.15825E-01   -0.71638E-02  2152   0.238E+00    0.212E-01
DAV:   4    -0.175446919150E+03   -0.65978E-04   -0.53003E-03  1848   0.583E-01    0.163E-01
DAV:   5    -0.175446882282E+03    0.36868E-04   -0.17040E-03  1912   0.415E-01    0.150E-01
DAV:   6    -0.175446761414E+03    0.12087E-03   -0.20730E-03  2032   0.345E-01    0.113E-01
DAV:   7    -0.175446872716E+03   -0.11130E-03   -0.19850E-03  2128   0.357E-01    0.179E-01
DAV:   8    -0.175446656222E+03    0.21649E-03   -0.12129E-03  2128   0.308E-01    0.466E-02
DAV:   9    -0.175446644470E+03    0.11752E-04   -0.16133E-04  1800   0.119E-01    0.293E-02
DAV:  10    -0.175446646717E+03   -0.22463E-05   -0.95585E-05  1608   0.788E-02
  40 F= -.17544665E+03 E0= -.17538719E+03  d E =-.121283E-01
 curvature:  -3.16 expect dE=-0.307E-01 dE for cont linesearch -0.979E-06
 trial: gam= 1.17489 g(F)=  0.504E-02 g(S)=  0.469E-02 ort = 0.734E-04 (trialstep = 0.549E+00)
 search vector abs. value=  0.339E-01
 bond charge predicted
       N       E                     dE             d eps       ncg     rms          rms(c)
DAV:   1    -0.175452828870E+03   -0.61844E-02   -0.79547E-01  1088   0.387E+00    0.853E-01
DAV:   2    -0.175600228262E+03   -0.14740E+00   -0.87684E-01  2160   0.845E+00    0.498E+00
DAV:   3    -0.175449693269E+03    0.15053E+00   -0.68955E-01  2160   0.738E+00    0.359E-01
DAV:   4    -0.175452746075E+03   -0.30528E-02   -0.44028E-02  1792   0.162E+00    0.507E-01
DAV:   5    -0.175451690219E+03    0.10559E-02   -0.11792E-02  1776   0.116E+00    0.265E-01
DAV:   6    -0.175451372842E+03    0.31738E-03   -0.65466E-03  2072   0.677E-01    0.200E-01
DAV:   7    -0.175451275184E+03    0.97658E-04   -0.31758E-03  2128   0.437E-01    0.167E-01
DAV:   8    -0.175451027376E+03    0.24781E-03   -0.16086E-03  2176   0.310E-01    0.563E-02
DAV:   9    -0.175451051110E+03   -0.23734E-04   -0.48983E-04  2144   0.197E-01    0.817E-02
DAV:  10    -0.175451019823E+03    0.31287E-04   -0.30123E-04  2048   0.167E-01    0.460E-02
DAV:  11    -0.175451000312E+03    0.19511E-04   -0.14620E-04  1768   0.950E-02    0.119E-02
DAV:  12    -0.175451000768E+03   -0.45553E-06   -0.20760E-05   728   0.468E-02
  41 F= -.17545100E+03 E0= -.17539179E+03  d E =-.435405E-02
 trial-energy change:   -0.004354  1 .order   -0.004297   -0.005387   -0.003207
 step:   1.1555(harm=  1.3556)  dis= 0.01661  next Energy=  -175.452851 (dE=-0.620E-02)
 bond charge predicted
       N       E                     dE             d eps       ncg     rms          rms(c)
DAV:   1    -0.175455380649E+03   -0.43803E-02   -0.97247E-01  1088   0.428E+00    0.945E-01
DAV:   2    -0.175634991540E+03   -0.17961E+00   -0.10700E+00  2160   0.936E+00    0.549E+00
DAV:   3    -0.175451486938E+03    0.18350E+00   -0.84078E-01  2160   0.818E+00    0.397E-01
DAV:   4    -0.175455244121E+03   -0.37572E-02   -0.54233E-02  1792   0.180E+00    0.558E-01
DAV:   5    -0.175453959410E+03    0.12847E-02   -0.14395E-02  1776   0.128E+00    0.293E-01
DAV:   6    -0.175453583310E+03    0.37610E-03   -0.79360E-03  2056   0.744E-01    0.222E-01
DAV:   7    -0.175453432829E+03    0.15048E-03   -0.37127E-03  2112   0.474E-01    0.174E-01
DAV:   8    -0.175453153193E+03    0.27964E-03   -0.18632E-03  2176   0.327E-01    0.580E-02
DAV:   9    -0.175453192006E+03   -0.38814E-04   -0.60250E-04  2144   0.217E-01    0.961E-02
DAV:  10    -0.175453144610E+03    0.47397E-04   -0.37674E-04  2088   0.190E-01    0.485E-02
DAV:  11    -0.175453123682E+03    0.20928E-04   -0.16202E-04  1872   0.101E-01    0.131E-02
DAV:  12    -0.175453124286E+03   -0.60441E-06   -0.23523E-05   808   0.503E-02
  42 F= -.17545312E+03 E0= -.17539422E+03  d E =-.647757E-02
 curvature:  -2.20 expect dE=-0.228E-01 dE for cont linesearch -0.889E-04
 trial: gam= 0.98503 g(F)=  0.566E-02 g(S)=  0.474E-02 ort = 0.117E-02 (trialstep = 0.498E+00)
 search vector abs. value=  0.456E-01
 bond charge predicted
       N       E                     dE             d eps       ncg     rms          rms(c)
DAV:   1    -0.175457695215E+03   -0.45715E-02   -0.77568E-01  1088   0.314E+00    0.364E-01
DAV:   2    -0.175484805283E+03   -0.27110E-01   -0.18451E-01  2144   0.369E+00    0.193E+00
DAV:   3    -0.175458791325E+03    0.26014E-01   -0.12001E-01  2144   0.307E+00    0.253E-01
DAV:   4    -0.175458880284E+03   -0.88959E-04   -0.76872E-03  1632   0.732E-01    0.182E-01
DAV:   5    -0.175458863386E+03    0.16897E-04   -0.24415E-03  1712   0.524E-01    0.181E-01
DAV:   6    -0.175458657511E+03    0.20588E-03   -0.21808E-03  1784   0.447E-01    0.116E-01
DAV:   7    -0.175458795101E+03   -0.13759E-03   -0.23813E-03  2176   0.400E-01    0.181E-01
DAV:   8    -0.175458539197E+03    0.25590E-03   -0.16358E-03  2176   0.338E-01    0.652E-02
DAV:   9    -0.175458515909E+03    0.23288E-04   -0.21152E-04  1936   0.144E-01    0.358E-02
DAV:  10    -0.175458519427E+03   -0.35179E-05   -0.12725E-04  1720   0.915E-02    0.319E-02
DAV:  11    -0.175458508270E+03    0.11157E-04   -0.68632E-05  1216   0.655E-02    0.112E-02
DAV:  12    -0.175458509408E+03   -0.11373E-05   -0.23397E-05   752   0.392E-02
  43 F= -.17545851E+03 E0= -.17539974E+03  d E =-.538512E-02
 ZBRENT: can't locate minimum, use default step
 trial-energy change:   -0.005385  1 .order   -0.005399   -0.005756   -0.005041
 step:   1.9923(harm=  4.0132)  dis= 0.03592  next Energy=  -175.476312 (dE=-0.232E-01)
 bond charge predicted
       N       E                     dE             d eps       ncg     rms          rms(c)
DAV:   1    -0.175462174733E+03   -0.36665E-02   -0.70063E+00  1088   0.953E+00    0.109E+00
DAV:   2    -0.175698960723E+03   -0.23679E+00   -0.16537E+00  2128   0.110E+01    0.568E+00
DAV:   3    -0.175472943120E+03    0.22602E+00   -0.10470E+00  2128   0.893E+00    0.769E-01
DAV:   4    -0.175473659257E+03   -0.71614E-03   -0.72343E-02  1784   0.219E+00    0.544E-01
DAV:   5    -0.175473559715E+03    0.99543E-04   -0.23031E-02  1944   0.154E+00    0.589E-01
DAV:   6    -0.175471460960E+03    0.20988E-02   -0.22364E-02  1968   0.137E+00    0.354E-01
DAV:   7    -0.175472977778E+03   -0.15168E-02   -0.21783E-02  2160   0.121E+00    0.581E-01
DAV:   8    -0.175470392516E+03    0.25853E-02   -0.14685E-02  2160   0.104E+00    0.181E-01
DAV:   9    -0.175470205796E+03    0.18672E-03   -0.19452E-03  2008   0.432E-01    0.985E-02
DAV:  10    -0.175470252117E+03   -0.46321E-04   -0.11581E-03  2112   0.270E-01    0.988E-02
DAV:  11    -0.175470150070E+03    0.10205E-03   -0.75477E-04  1736   0.193E-01    0.308E-02
DAV:  12    -0.175470165275E+03   -0.15205E-04   -0.25011E-04  1880   0.107E-01    0.452E-02
DAV:  13    -0.175470146732E+03    0.18543E-04   -0.10022E-04  1504   0.833E-02    0.125E-02
DAV:  14    -0.175470145521E+03    0.12118E-05   -0.14486E-05   640   0.366E-02
  44 F= -.17547015E+03 E0= -.17541184E+03  d E =-.170212E-01
 curvature:  -5.30 expect dE=-0.380E-01 dE for cont linesearch -0.342E-02
 ZBRENT: increasing intervall
 opt :   4.9807  next Energy=  -175.472303 (dE=-0.192E-01)
 bond charge predicted
       N       E                     dE             d eps       ncg     rms          rms(c)
DAV:   1    -0.175435590371E+03    0.34556E-01   -0.28232E+01  1088   0.196E+01    0.216E+00
DAV:   2    -0.176322018151E+03   -0.88643E+00   -0.65102E+00  2096   0.215E+01    0.109E+01
DAV:   3    -0.175482260654E+03    0.83976E+00   -0.40261E+00  2112   0.170E+01    0.155E+00
DAV:   4    -0.175485704142E+03   -0.34435E-02   -0.31744E-01  1888   0.436E+00    0.108E+00
DAV:   5    -0.175484158593E+03    0.15455E-02   -0.93746E-02  2064   0.295E+00    0.122E+00
DAV:   6    -0.175476254603E+03    0.79040E-02   -0.95306E-02  2064   0.284E+00    0.747E-01
DAV:   7    -0.175481392592E+03   -0.51380E-02   -0.76380E-02  2176   0.234E+00    0.109E+00
DAV:   8    -0.175471656678E+03    0.97359E-02   -0.53021E-02  2160   0.199E+00    0.345E-01
DAV:   9    -0.175471095613E+03    0.56107E-03   -0.88791E-03  2176   0.879E-01    0.210E-01
DAV:  10    -0.175471208792E+03   -0.11318E-03   -0.40892E-03  2136   0.554E-01    0.191E-01
DAV:  11    -0.175470796458E+03    0.41233E-03   -0.27001E-03  1744   0.377E-01    0.550E-02
DAV:  12    -0.175470848660E+03   -0.52202E-04   -0.85975E-04  1808   0.193E-01    0.791E-02
DAV:  13    -0.175470793487E+03    0.55173E-04   -0.38237E-04  1960   0.150E-01    0.260E-02
DAV:  14    -0.175470789004E+03    0.44829E-05   -0.72942E-05  1416   0.646E-02
  45 F= -.17547079E+03 E0= -.17541356E+03  d E =-.176647E-01
 curvature:  -3.35 expect dE=-0.164E+00 dE for cont linesearch -0.233E-02
 ZBRENT: bracketing found
 ZBRENT: interpolating
 opt :   3.4583  next Energy=  -175.474120 (dE=-0.210E-01)
 bond charge predicted
       N       E                     dE             d eps       ncg     rms          rms(c)
DAV:   1    -0.175468151607E+03    0.26419E-02   -0.72266E+00  1088   0.941E+00    0.108E+00
DAV:   2    -0.175702096901E+03   -0.23395E+00   -0.16482E+00  2144   0.108E+01    0.556E+00
DAV:   3    -0.175476255509E+03    0.22584E+00   -0.10820E+00  2160   0.933E+00    0.728E-01
DAV:   4    -0.175478513473E+03   -0.22580E-02   -0.81640E-02  1784   0.220E+00    0.592E-01
DAV:   5    -0.175477942689E+03    0.57078E-03   -0.26438E-02  1984   0.156E+00    0.552E-01
DAV:   6    -0.175475851988E+03    0.20907E-02   -0.25097E-02  1992   0.137E+00    0.346E-01
DAV:   7    -0.175476685539E+03   -0.83355E-03   -0.18029E-02  2136   0.114E+00    0.481E-01
DAV:   8    -0.175474791875E+03    0.18937E-02   -0.12134E-02  2176   0.905E-01    0.182E-01
DAV:   9    -0.175474632184E+03    0.15969E-03   -0.19132E-03  2032   0.419E-01    0.116E-01
DAV:  10    -0.175474661257E+03   -0.29073E-04   -0.12556E-03  2176   0.286E-01    0.110E-01
DAV:  11    -0.175474556696E+03    0.10456E-03   -0.87998E-04  2072   0.209E-01    0.426E-02
DAV:  12    -0.175474569832E+03   -0.13136E-04   -0.29052E-04  1952   0.118E-01    0.539E-02
DAV:  13    -0.175474542846E+03    0.26986E-04   -0.13663E-04  1704   0.931E-02    0.111E-02
DAV:  14    -0.175474542072E+03    0.77366E-06   -0.13989E-05   640   0.350E-02
  46 F= -.17547454E+03 E0= -.17541666E+03  d E =-.214178E-01
 curvature:  -5.72 expect dE=-0.120E+00 dE for cont linesearch -0.259E-04
 trial: gam= 2.37638 g(F)=  0.149E-01 g(S)=  0.598E-02 ort = 0.454E-03 (trialstep = 0.177E+00)
 search vector abs. value=  0.281E+00
 bond charge predicted
       N       E                     dE             d eps       ncg     rms          rms(c)
DAV:   1    -0.175477562149E+03   -0.30193E-02   -0.63866E-01  1088   0.281E+00    0.255E-01
DAV:   2    -0.175489951750E+03   -0.12390E-01   -0.90598E-02  2168   0.238E+00    0.122E+00
DAV:   3    -0.175478691287E+03    0.11260E-01   -0.54542E-02  2168   0.204E+00    0.209E-01
DAV:   4    -0.175478615197E+03    0.76090E-04   -0.41746E-03  1920   0.558E-01    0.140E-01
DAV:   5    -0.175478516562E+03    0.98635E-04   -0.16245E-03  2096   0.352E-01    0.131E-01
DAV:   6    -0.175478463946E+03    0.52615E-04   -0.22876E-03  2176   0.380E-01    0.131E-01
DAV:   7    -0.175478496582E+03   -0.32636E-04   -0.15822E-03  2128   0.343E-01    0.146E-01
DAV:   8    -0.175478328095E+03    0.16849E-03   -0.77427E-04  2136   0.251E-01    0.348E-02
DAV:   9    -0.175478322396E+03    0.56989E-05   -0.13497E-04  1704   0.880E-02    0.197E-02
DAV:  10    -0.175478319332E+03    0.30636E-05   -0.27709E-05   872   0.528E-02
  47 F= -.17547832E+03 E0= -.17542064E+03  d E =-.377726E-02
 ZBRENT: can't locate minimum, use default step
 trial-energy change:   -0.003777  1 .order   -0.003774   -0.003897   -0.003651
 step:   0.7086(harm=  2.7988)  dis= 0.03268  next Energy=  -175.505328 (dE=-0.308E-01)
 bond charge predicted
       N       E                     dE             d eps       ncg     rms          rms(c)
DAV:   1    -0.175481331542E+03   -0.30091E-02   -0.57440E+00  1088   0.840E+00    0.771E-01
DAV:   2    -0.175589221710E+03   -0.10789E+00   -0.80237E-01  2152   0.702E+00    0.363E+00
DAV:   3    -0.175491155850E+03    0.98066E-01   -0.48833E-01  2144   0.610E+00    0.625E-01
DAV:   4    -0.175490645011E+03    0.51084E-03   -0.38668E-02  1896   0.170E+00    0.418E-01
DAV:   5    -0.175489521831E+03    0.11232E-02   -0.14063E-02  2032   0.104E+00    0.347E-01
DAV:   6    -0.175489144747E+03    0.37708E-03   -0.18110E-02  2168   0.105E+00    0.341E-01
DAV:   7    -0.175489365436E+03   -0.22069E-03   -0.13017E-02  2144   0.927E-01    0.405E-01
DAV:   8    -0.175488058608E+03    0.13068E-02   -0.60696E-03  2144   0.708E-01    0.101E-01
DAV:   9    -0.175488014952E+03    0.43656E-04   -0.10558E-03  1976   0.264E-01    0.652E-02
DAV:  10    -0.175488028688E+03   -0.13736E-04   -0.52296E-04  2144   0.201E-01    0.834E-02
DAV:  11    -0.175487982024E+03    0.46665E-04   -0.30102E-04  2128   0.159E-01    0.285E-02
DAV:  12    -0.175487981878E+03    0.14568E-06   -0.70555E-05  1416   0.733E-02
  48 F= -.17548798E+03 E0= -.17543115E+03  d E =-.134398E-01
 curvature:  -6.50 expect dE=-0.140E+00 dE for cont linesearch -0.534E-02
 ZBRENT: increasing intervall
 opt :   1.7716  next Energy=  -175.498338 (dE=-0.238E-01)
 bond charge predicted
       N       E                     dE             d eps       ncg     rms          rms(c)
DAV:   1    -0.175467518354E+03    0.20464E-01   -0.22991E+01  1088   0.168E+01    0.156E+00
DAV:   2    -0.175872776897E+03   -0.40526E+00   -0.31252E+00  2128   0.136E+01    0.695E+00
DAV:   3    -0.175505710584E+03    0.36707E+00   -0.19225E+00  2176   0.119E+01    0.120E+00
DAV:   4    -0.175505800216E+03   -0.89632E-04   -0.16693E-01  1832   0.344E+00    0.887E-01
DAV:   5    -0.175500143884E+03    0.56563E-02   -0.70144E-02  1984   0.223E+00    0.702E-01
DAV:   6    -0.175497972629E+03    0.21713E-02   -0.65181E-02  2120   0.203E+00    0.555E-01
DAV:   7    -0.175498074383E+03   -0.10175E-03   -0.33800E-02  2176   0.162E+00    0.605E-01
DAV:   8    -0.175494367248E+03    0.37071E-02   -0.19858E-02  2176   0.118E+00    0.159E-01
DAV:   9    -0.175494495182E+03   -0.12793E-03   -0.35456E-03  2144   0.488E-01    0.171E-01
DAV:  10    -0.175494255674E+03    0.23951E-03   -0.20915E-03  2136   0.361E-01    0.713E-02
DAV:  11    -0.175494251037E+03    0.46366E-05   -0.59075E-04  2160   0.199E-01    0.656E-02
DAV:  12    -0.175494237504E+03    0.13533E-04   -0.22896E-04  2128   0.151E-01    0.463E-02
DAV:  13    -0.175494218557E+03    0.18947E-04   -0.79809E-05  1448   0.856E-02    0.129E-02
DAV:  14    -0.175494219004E+03   -0.44711E-06   -0.28651E-05   792   0.443E-02
  49 F= -.17549422E+03 E0= -.17544013E+03  d E =-.196769E-01
 curvature: -12.62 expect dE=-0.501E+00 dE for cont linesearch -0.169E-02
 trial: gam= 1.21016 g(F)=  0.272E-01 g(S)=  0.124E-01 ort =-0.613E-02 (trialstep = 0.319E+00)
 search vector abs. value=  0.436E+00
 bond charge predicted
       N       E                     dE             d eps       ncg     rms          rms(c)
DAV:   1    -0.175498935090E+03   -0.47165E-02   -0.34257E+00  1088   0.659E+00    0.569E-01
DAV:   2    -0.175548267674E+03   -0.49333E-01   -0.42679E-01  2136   0.487E+00    0.225E+00
DAV:   3    -0.175504621313E+03    0.43646E-01   -0.24062E-01  2176   0.397E+00    0.418E-01
DAV:   4    -0.175505135397E+03   -0.51408E-03   -0.22444E-02  2008   0.125E+00    0.443E-01
DAV:   5    -0.175504301774E+03    0.83362E-03   -0.12567E-02  2096   0.106E+00    0.381E-01
DAV:   6    -0.175503703831E+03    0.59794E-03   -0.13068E-02  2096   0.982E-01    0.276E-01
DAV:   7    -0.175503808812E+03   -0.10498E-03   -0.73263E-03  2152   0.733E-01    0.277E-01
DAV:   8    -0.175503052696E+03    0.75612E-03   -0.35700E-03  2160   0.506E-01    0.801E-02
DAV:   9    -0.175503046710E+03    0.59866E-05   -0.67161E-04  2144   0.195E-01    0.607E-02
DAV:  10    -0.175503045100E+03    0.16099E-05   -0.27448E-04  1912   0.156E-01    0.527E-02
DAV:  11    -0.175503023738E+03    0.21362E-04   -0.17444E-04  1888   0.121E-01    0.246E-02
DAV:  12    -0.175503023527E+03    0.21130E-06   -0.47095E-05  1184   0.641E-02
  50 F= -.17550302E+03 E0= -.17544986E+03  d E =-.880452E-02
 trial-energy change:   -0.008805  1 .order   -0.008729   -0.010300   -0.007157
 step:   0.8449(harm=  1.0466)  dis= 0.04892  next Energy=  -175.509249 (dE=-0.150E-01)
 bond charge predicted
       N       E                     dE             d eps       ncg     rms          rms(c)
DAV:   1    -0.175497496042E+03    0.55277E-02   -0.92950E+00  1088   0.109E+01    0.936E-01
DAV:   2    -0.175629098085E+03   -0.13160E+00   -0.11464E+00  2008   0.788E+00    0.363E+00
DAV:   3    -0.175513637006E+03    0.11546E+00   -0.64250E-01  2176   0.643E+00    0.726E-01
DAV:   4    -0.175514614454E+03   -0.97745E-03   -0.63186E-02  1952   0.212E+00    0.725E-01
DAV:   5    -0.175512213674E+03    0.24008E-02   -0.32948E-02  1984   0.178E+00    0.562E-01
DAV:   6    -0.175510531829E+03    0.16818E-02   -0.31779E-02  2000   0.155E+00    0.410E-01
DAV:   7    -0.175512065810E+03   -0.15340E-02   -0.23617E-02  2168   0.134E+00    0.626E-01
DAV:   8    -0.175509053686E+03    0.30121E-02   -0.14464E-02  2176   0.103E+00    0.158E-01
DAV:   9    -0.175508935846E+03    0.11784E-03   -0.18246E-03  2160   0.362E-01    0.774E-02
DAV:  10    -0.175508965645E+03   -0.29799E-04   -0.68536E-04  2072   0.231E-01    0.829E-02
DAV:  11    -0.175508901917E+03    0.63728E-04   -0.53452E-04  2128   0.193E-01    0.343E-02
DAV:  12    -0.175508905649E+03   -0.37316E-05   -0.15645E-04  1696   0.952E-02    0.347E-02
DAV:  13    -0.175508892634E+03    0.13015E-04   -0.54626E-05  1216   0.643E-02    0.117E-02
DAV:  14    -0.175508892394E+03    0.23992E-06   -0.13452E-05   640   0.290E-02
  51 F= -.17550889E+03 E0= -.17545696E+03  d E =-.146734E-01
 curvature:  -6.53 expect dE=-0.261E+00 dE for cont linesearch -0.163E-04
 trial: gam= 0.13838 g(F)=  0.299E-01 g(S)=  0.101E-01 ort =-0.104E-02 (trialstep = 0.425E+00)
 search vector abs. value=  0.481E-01
 bond charge predicted
       N       E                     dE             d eps       ncg     rms          rms(c)
DAV:   1    -0.175524651942E+03   -0.15759E-01   -0.55718E-01  1088   0.281E+00    0.405E-01
DAV:   2    -0.175548748551E+03   -0.24097E-01   -0.16530E-01  2176   0.349E+00    0.193E+00
DAV:   3    -0.175524888949E+03    0.23860E-01   -0.11189E-01  2176   0.294E+00    0.287E-01
DAV:   4    -0.175525192166E+03   -0.30322E-03   -0.12618E-02  1960   0.930E-01    0.288E-01
DAV:   5    -0.175524960202E+03    0.23196E-03   -0.73922E-03  1992   0.805E-01    0.259E-01
DAV:   6    -0.175524504119E+03    0.45608E-03   -0.49043E-03  2016   0.624E-01    0.117E-01
DAV:   7    -0.175524592864E+03   -0.88746E-04   -0.21230E-03  2136   0.367E-01    0.150E-01
DAV:   8    -0.175524392079E+03    0.20079E-03   -0.11512E-03  2176   0.264E-01    0.402E-02
DAV:   9    -0.175524384939E+03    0.71396E-05   -0.14038E-04  1792   0.114E-01    0.265E-02
DAV:  10    -0.175524386241E+03   -0.13012E-05   -0.55894E-05  1208   0.837E-02
  52 F= -.17552439E+03 E0= -.17547201E+03  d E =-.154938E-01
 ZBRENT: can't locate minimum, use default step
 trial-energy change:   -0.015494  1 .order   -0.015528   -0.016925   -0.014132
 step:   1.6981(harm=  2.5732)  dis= 0.02293  next Energy=  -175.560186 (dE=-0.513E-01)
 bond charge predicted
       N       E                     dE             d eps       ncg     rms          rms(c)
DAV:   1    -0.175556950925E+03   -0.32566E-01   -0.50243E+00  1088   0.850E+00    0.122E+00
DAV:   2    -0.175775011981E+03   -0.21806E+00   -0.15035E+00  2176   0.105E+01    0.581E+00
DAV:   3    -0.175559173389E+03    0.21584E+00   -0.10128E+00  2176   0.865E+00    0.869E-01
DAV:   4    -0.175562375963E+03   -0.32026E-02   -0.12067E-01  2016   0.279E+00    0.888E-01
DAV:   5    -0.175560082506E+03    0.22935E-02   -0.70756E-02  2048   0.241E+00    0.803E-01
DAV:   6    -0.175555771121E+03    0.43114E-02   -0.44921E-02  2080   0.189E+00    0.355E-01
DAV:   7    -0.175556552047E+03   -0.78093E-03   -0.19257E-02  2128   0.110E+00    0.442E-01
DAV:   8    -0.175554752348E+03    0.17997E-02   -0.10556E-02  2176   0.796E-01    0.120E-01
DAV:   9    -0.175554703402E+03    0.48946E-04   -0.16611E-03  2176   0.349E-01    0.882E-02
DAV:  10    -0.175554706059E+03   -0.26573E-05   -0.58623E-04  2016   0.245E-01    0.846E-02
DAV:  11    -0.175554635776E+03    0.70283E-04   -0.45107E-04  2120   0.178E-01    0.255E-02
[...]
 trial: gam= 0.76836 g(F)=  0.923E-04 g(S)=  0.664E-04 ort =-0.130E-04 (trialstep = 0.879E+00)
 search vector abs. value=  0.866E-03
 bond charge predicted
       N       E                     dE             d eps       ncg     rms          rms(c)
DAV:   1    -0.176641403455E+03   -0.10198E-03   -0.45497E-02  1088   0.757E-01    0.909E-02
DAV:   2    -0.176642740636E+03   -0.13372E-02   -0.88086E-03  2176   0.827E-01    0.434E-01
DAV:   3    -0.176641412838E+03    0.13278E-02   -0.58291E-03  2168   0.691E-01    0.483E-02
DAV:   4    -0.176641434040E+03   -0.21202E-04   -0.51359E-04  1824   0.168E-01    0.533E-02
DAV:   5    -0.176641410136E+03    0.23904E-04   -0.21802E-04  1936   0.145E-01    0.395E-02
DAV:   6    -0.176641404703E+03    0.54330E-05   -0.19568E-04  1936   0.130E-01    0.328E-02
DAV:   7    -0.176641392702E+03    0.12001E-04   -0.45613E-05  1056   0.695E-02    0.121E-02
DAV:   8    -0.176641391777E+03    0.92575E-06   -0.15544E-05   616   0.356E-02
 228 F= -.17664139E+03 E0= -.17659038E+03  d E =-.856729E-04
 trial-energy change:   -0.000086  1 .order   -0.000099   -0.000131   -0.000068
 step:   1.8312(harm=  1.8312)  dis= 0.00318  next Energy=  -176.641442 (dE=-0.136E-03)
 bond charge predicted
       N       E                     dE             d eps       ncg     rms          rms(c)
DAV:   1    -0.176641441236E+03   -0.48534E-04   -0.53484E-02  1088   0.822E-01    0.978E-02
DAV:   2    -0.176642978242E+03   -0.15370E-02   -0.10120E-02  2168   0.890E-01    0.464E-01
DAV:   3    -0.176641452822E+03    0.15254E-02   -0.67071E-03  2160   0.739E-01    0.508E-02
DAV:   4    -0.176641480837E+03   -0.28016E-04   -0.61078E-04  1840   0.177E-01    0.601E-02
DAV:   5    -0.176641450225E+03    0.30612E-04   -0.28830E-04  1968   0.161E-01    0.423E-02
DAV:   6    -0.176641448170E+03    0.20558E-05   -0.22630E-04  1928   0.143E-01    0.395E-02
DAV:   7    -0.176641432205E+03    0.15964E-04   -0.82692E-05  1352   0.815E-02    0.128E-02
DAV:   8    -0.176641430647E+03    0.15587E-05   -0.16182E-05   624   0.374E-02
 229 F= -.17664143E+03 E0= -.17659044E+03  d E =-.124543E-03
 curvature:  -5.34 expect dE=-0.156E-02 dE for cont linesearch -0.655E-06
 trial: gam= 1.69416 g(F)=  0.869E-04 g(S)=  0.206E-03 ort = 0.103E-04 (trialstep = 0.329E+00)
 search vector abs. value=  0.281E-02
 bond charge predicted
       N       E                     dE             d eps       ncg     rms          rms(c)
DAV:   1    -0.176641519374E+03   -0.87168E-04   -0.20601E-02  1088   0.532E-01    0.819E-02
DAV:   2    -0.176642562776E+03   -0.10434E-02   -0.67284E-03  2168   0.741E-01    0.401E-01
DAV:   3    -0.176641509605E+03    0.10532E-02   -0.48975E-03  2160   0.626E-01    0.400E-02
DAV:   4    -0.176641529075E+03   -0.19470E-04   -0.35191E-04  1800   0.142E-01    0.409E-02
DAV:   5    -0.176641514215E+03    0.14860E-04   -0.10546E-04  1480   0.111E-01    0.266E-02
DAV:   6    -0.176641513761E+03    0.45401E-06   -0.10628E-04  1504   0.882E-02    0.241E-02
DAV:   7    -0.176641508053E+03    0.57085E-05   -0.21744E-05   800   0.618E-02
 230 F= -.17664151E+03 E0= -.17659058E+03  d E =-.774060E-04
 trial-energy change:   -0.000077  1 .order   -0.000080   -0.000102   -0.000059
 step:   0.7714(harm=  0.7714)  dis= 0.00247  next Energy=  -176.641550 (dE=-0.120E-03)
 bond charge predicted
       N       E                     dE             d eps       ncg     rms          rms(c)
DAV:   1    -0.176641567360E+03   -0.53599E-04   -0.37088E-02  1088   0.717E-01    0.105E-01
DAV:   2    -0.176643290014E+03   -0.17227E-02   -0.11245E-02  2168   0.954E-01    0.513E-01
DAV:   3    -0.176641558209E+03    0.17318E-02   -0.79580E-03  2160   0.797E-01    0.497E-02
DAV:   4    -0.176641594466E+03   -0.36256E-04   -0.58391E-04  1808   0.180E-01    0.551E-02
DAV:   5    -0.176641564444E+03    0.30022E-04   -0.19815E-04  1760   0.146E-01    0.326E-02
DAV:   6    -0.176641571309E+03   -0.68658E-05   -0.19776E-04  1928   0.119E-01    0.408E-02
DAV:   7    -0.176641556034E+03    0.15275E-04   -0.84283E-05  1532   0.852E-02    0.137E-02
DAV:   8    -0.176641554026E+03    0.20076E-05   -0.14410E-05   620   0.403E-02
 231 F= -.17664155E+03 E0= -.17659070E+03  d E =-.123380E-03
 curvature:  -3.50 expect dE=-0.605E-03 dE for cont linesearch -0.998E-07
 trial: gam= 0.74970 g(F)=  0.867E-04 g(S)=  0.862E-04 ort = 0.896E-05 (trialstep = 0.418E+00)
 search vector abs. value=  0.177E-02
 bond charge predicted
       N       E                     dE             d eps       ncg     rms          rms(c)
DAV:   1    -0.176641607790E+03   -0.51755E-04   -0.20208E-02  1088   0.490E-01    0.506E-02
DAV:   2    -0.176641963144E+03   -0.35535E-03   -0.24986E-03  2176   0.427E-01    0.227E-01
DAV:   3    -0.176641616094E+03    0.34705E-03   -0.15584E-03  2168   0.357E-01    0.267E-02
DAV:   4    -0.176641624104E+03   -0.80098E-05   -0.16415E-04  1736   0.971E-02    0.352E-02
DAV:   5    -0.176641608776E+03    0.15327E-04   -0.72826E-05  1264   0.938E-02    0.175E-02
DAV:   6    -0.176641611206E+03   -0.24301E-05   -0.80240E-05  1432   0.749E-02
 232 F= -.17664161E+03 E0= -.17659081E+03  d E =-.571798E-04
 trial-energy change:   -0.000057  1 .order   -0.000062   -0.000075   -0.000049
 step:   1.2258(harm=  1.2258)  dis= 0.00317  next Energy=  -176.641664 (dE=-0.110E-03)
 bond charge predicted
       N       E                     dE             d eps       ncg     rms          rms(c)
DAV:   1    -0.176641627745E+03   -0.18968E-04   -0.75680E-02  1088   0.951E-01    0.936E-02
DAV:   2    -0.176642856208E+03   -0.12285E-02   -0.85850E-03  2176   0.791E-01    0.420E-01
DAV:   3    -0.176641679451E+03    0.11768E-02   -0.51908E-03  2160   0.652E-01    0.497E-02
DAV:   4    -0.176641707304E+03   -0.27853E-04   -0.56411E-04  1912   0.176E-01    0.670E-02
DAV:   5    -0.176641659501E+03    0.47803E-04   -0.31438E-04  1936   0.170E-01    0.333E-02
DAV:   6    -0.176641672146E+03   -0.12645E-04   -0.28129E-04  2072   0.141E-01    0.513E-02
DAV:   7    -0.176641646400E+03    0.25747E-04   -0.14815E-04  1872   0.983E-02    0.117E-02
DAV:   8    -0.176641645319E+03    0.10809E-05   -0.13011E-05   632   0.371E-02
 233 F= -.17664165E+03 E0= -.17659093E+03  d E =-.912922E-04
 curvature:  -6.04 expect dE=-0.867E-03 dE for cont linesearch -0.543E-09
 trial: gam= 0.87098 g(F)=  0.821E-04 g(S)=  0.615E-04 ort =-0.399E-06 (trialstep = 0.579E+00)
 search vector abs. value=  0.148E-02
 bond charge predicted
       N       E                     dE             d eps       ncg     rms          rms(c)
DAV:   1    -0.176641696531E+03   -0.50132E-04   -0.32172E-02  1088   0.630E-01    0.739E-02
DAV:   2    -0.176642527624E+03   -0.83109E-03   -0.55484E-03  2176   0.652E-01    0.348E-01
DAV:   3    -0.176641712254E+03    0.81537E-03   -0.36473E-03  2168   0.546E-01    0.377E-02
DAV:   4    -0.176641731435E+03   -0.19181E-04   -0.33170E-04  1888   0.134E-01    0.470E-02
DAV:   5    -0.176641710731E+03    0.20703E-04   -0.13606E-04  1744   0.118E-01    0.264E-02
DAV:   6    -0.176641712851E+03   -0.21195E-05   -0.13328E-04  1784   0.989E-02    0.297E-02
DAV:   7    -0.176641702111E+03    0.10740E-04   -0.30407E-05   952   0.627E-02    0.952E-03
DAV:   8    -0.176641701995E+03    0.11529E-06   -0.13117E-05   604   0.290E-02
 234 F= -.17664170E+03 E0= -.17659107E+03  d E =-.566767E-04
 trial-energy change:   -0.000057  1 .order   -0.000058   -0.000083   -0.000033
 step:   0.9589(harm=  0.9589)  dis= 0.00235  next Energy=  -176.641714 (dE=-0.687E-04)
 bond charge predicted
       N       E                     dE             d eps       ncg     rms          rms(c)
DAV:   1    -0.176641716062E+03   -0.13951E-04   -0.13852E-02  1088   0.416E-01    0.478E-02
DAV:   2    -0.176642055168E+03   -0.33911E-03   -0.23339E-03  2176   0.423E-01    0.221E-01
DAV:   3    -0.176641725488E+03    0.32968E-03   -0.15060E-03  2160   0.349E-01    0.272E-02
DAV:   4    -0.176641730242E+03   -0.47535E-05   -0.13001E-04  1592   0.864E-02    0.267E-02
DAV:   5    -0.176641723022E+03    0.72201E-05   -0.35257E-05   992   0.788E-02
 235 F= -.17664172E+03 E0= -.17659116E+03  d E =-.777031E-04
 curvature:  -4.97 expect dE=-0.675E-03 dE for cont linesearch -0.147E-04
 ZBRENT: increasing intervall
 opt :   1.7183  next Energy=  -176.641781 (dE=-0.135E-03)
 bond charge predicted
       N       E                     dE             d eps       ncg     rms          rms(c)
DAV:   1    -0.176641705229E+03    0.25013E-04   -0.55186E-02  1088   0.830E-01    0.103E-01
DAV:   2    -0.176643399320E+03   -0.16941E-02   -0.11159E-02  2176   0.937E-01    0.503E-01
DAV:   3    -0.176641717955E+03    0.16814E-02   -0.75231E-03  2160   0.781E-01    0.492E-02
DAV:   4    -0.176641757023E+03   -0.39068E-04   -0.63610E-04  1816   0.175E-01    0.626E-02
DAV:   5    -0.176641717611E+03    0.39411E-04   -0.23885E-04  1888   0.153E-01    0.320E-02
DAV:   6    -0.176641728981E+03   -0.11369E-04   -0.23775E-04  2040   0.130E-01    0.466E-02
DAV:   7    -0.176641706847E+03    0.22134E-04   -0.12436E-04  1716   0.944E-02    0.110E-02
DAV:   8    -0.176641705878E+03    0.96966E-06   -0.13040E-05   628   0.389E-02
 236 F= -.17664171E+03 E0= -.17659125E+03  d E =-.605589E-04
 curvature: -19.45 expect dE=-0.985E-02 dE for cont linesearch -0.790E-04
 ZBRENT: bracketing found
 ZBRENT: interpolating
 opt :   1.3089  next Energy=  -176.641735 (dE=-0.893E-04)
 bond charge predicted
       N       E                     dE             d eps       ncg     rms          rms(c)
DAV:   1    -0.176641725978E+03   -0.19131E-04   -0.16117E-02  1088   0.447E-01    0.533E-02
DAV:   2    -0.176642169061E+03   -0.44308E-03   -0.30315E-03  2176   0.477E-01    0.254E-01
DAV:   3    -0.176641728796E+03    0.44027E-03   -0.19988E-03  2160   0.401E-01    0.274E-02
DAV:   4    -0.176641736093E+03   -0.72971E-05   -0.16281E-04  1696   0.953E-02    0.300E-02
DAV:   5    -0.176641724878E+03    0.11215E-04   -0.46200E-05  1136   0.811E-02    0.179E-02
DAV:   6    -0.176641723951E+03    0.92678E-06   -0.48336E-05  1144   0.687E-02
 237 F= -.17664172E+03 E0= -.17659122E+03  d E =-.786325E-04
 curvature:  -2.86 expect dE=-0.779E-03 dE for cont linesearch -0.474E-05
 ZBRENT: interpolating
 opt :   1.1592  next Energy=  -176.641728 (dE=-0.823E-04)
 bond charge predicted
       N       E                     dE             d eps       ncg     rms          rms(c)
DAV:   1    -0.176641724533E+03    0.34491E-06   -0.21549E-03  1096   0.170E-01    0.219E-02
DAV:   2    -0.176641802568E+03   -0.78035E-04   -0.50561E-04  2128   0.201E-01    0.109E-01
DAV:   3    -0.176641724145E+03    0.78423E-04   -0.33212E-04  2112   0.169E-01    0.113E-02
DAV:   4    -0.176641724012E+03    0.13276E-06   -0.18476E-05   784   0.382E-02
 238 F= -.17664172E+03 E0= -.17659119E+03  d E =-.786934E-04
 curvature:  -2.24 expect dE=-0.481E-03 dE for cont linesearch -0.285E-05
 ZBRENT: bisectioning
 opt :   1.0591  next Energy=  -176.641728 (dE=-0.828E-04)
 bond charge predicted
       N       E                     dE             d eps       ncg     rms          rms(c)
DAV:   1    -0.176641726063E+03   -0.19181E-05   -0.97337E-04  1096   0.113E-01    0.169E-02
DAV:   2    -0.176641762456E+03   -0.36393E-04   -0.25975E-04  2080   0.147E-01    0.718E-02
DAV:   3    -0.176641723977E+03    0.38479E-04   -0.17578E-04  2008   0.128E-01    0.129E-02
DAV:   4    -0.176641722745E+03    0.12326E-05   -0.15068E-05   740   0.341E-02
 239 F= -.17664172E+03 E0= -.17659117E+03  d E =-.774259E-04
 curvature:  -3.26 expect dE=-0.558E-03 dE for cont linesearch -0.161E-05
 trial: gam= 1.10858 g(F)=  0.733E-04 g(S)=  0.978E-04 ort =-0.271E-04 (trialstep = 0.518E+00)
 search vector abs. value=  0.194E-02
 bond charge predicted
       N       E                     dE             d eps       ncg     rms          rms(c)
DAV:   1    -0.176641779760E+03   -0.55783E-04   -0.32959E-02  1088   0.640E-01    0.739E-02
DAV:   2    -0.176642644497E+03   -0.86474E-03   -0.58992E-03  2176   0.675E-01    0.351E-01
DAV:   3    -0.176641795780E+03    0.84872E-03   -0.39035E-03  2160   0.562E-01    0.407E-02
DAV:   4    -0.176641806485E+03   -0.10705E-04   -0.29180E-04  1776   0.130E-01    0.380E-02
DAV:   5    -0.176641791518E+03    0.14967E-04   -0.99491E-05  1456   0.109E-01    0.279E-02
DAV:   6    -0.176641789519E+03    0.19992E-05   -0.12438E-04  1648   0.987E-02    0.265E-02
DAV:   7    -0.176641783182E+03    0.63367E-05   -0.29691E-05   952   0.693E-02
 240 F= -.17664178E+03 E0= -.17659126E+03  d E =-.604375E-04
 trial-energy change:   -0.000060  1 .order   -0.000057   -0.000073   -0.000041
 step:   1.1719(harm=  1.1719)  dis= 0.00350  next Energy=  -176.641805 (dE=-0.827E-04)
 bond charge predicted
       N       E                     dE             d eps       ncg     rms          rms(c)
DAV:   1    -0.176641794901E+03   -0.53821E-05   -0.52483E-02  1088   0.812E-01    0.960E-02
DAV:   2    -0.176643198294E+03   -0.14034E-02   -0.95984E-03  2176   0.862E-01    0.457E-01
DAV:   3    -0.176641814462E+03    0.13838E-02   -0.63348E-03  2160   0.709E-01    0.489E-02
DAV:   4    -0.176641838500E+03   -0.24038E-04   -0.46033E-04  1824   0.166E-01    0.533E-02
DAV:   5    -0.176641805427E+03    0.33072E-04   -0.19447E-04  1736   0.146E-01    0.314E-02
DAV:   6    -0.176641816466E+03   -0.11039E-04   -0.23712E-04  1984   0.125E-01    0.488E-02
DAV:   7    -0.176641795282E+03    0.21185E-04   -0.12267E-04  1792   0.959E-02    0.145E-02
DAV:   8    -0.176641793012E+03    0.22695E-05   -0.13944E-05   648   0.409E-02
 241 F= -.17664179E+03 E0= -.17659134E+03  d E =-.702675E-04
 curvature:  -8.03 expect dE=-0.128E-02 dE for cont linesearch -0.802E-05
 ZBRENT: interpolating
 opt :   0.9377  next Energy=  -176.641798 (dE=-0.754E-04)
 bond charge predicted
       N       E                     dE             d eps       ncg     rms          rms(c)
DAV:   1    -0.176641796277E+03   -0.99532E-06   -0.67430E-03  1088   0.288E-01    0.362E-02
DAV:   2    -0.176642009377E+03   -0.21310E-03   -0.14234E-03  2176   0.329E-01    0.177E-01
DAV:   3    -0.176641799413E+03    0.20996E-03   -0.96761E-04  2160   0.278E-01    0.180E-02
DAV:   4    -0.176641801743E+03   -0.23303E-05   -0.55348E-05  1240   0.621E-02
 242 F= -.17664180E+03 E0= -.17659133E+03  d E =-.789986E-04
 curvature:  -5.16 expect dE=-0.409E-03 dE for cont linesearch -0.870E-05
 ZBRENT: bisectioning
 opt :   0.7278  next Energy=  -176.641815 (dE=-0.922E-04)
 bond charge predicted
       N       E                     dE             d eps       ncg     rms          rms(c)
DAV:   1    -0.176641799108E+03    0.30527E-06   -0.54015E-03  1088   0.263E-01    0.384E-02
DAV:   2    -0.176642038708E+03   -0.23960E-03   -0.15236E-03  2160   0.349E-01    0.190E-01
DAV:   3    -0.176641796427E+03    0.24228E-03   -0.10673E-03  2144   0.297E-01    0.208E-02
DAV:   4    -0.176641798797E+03   -0.23701E-05   -0.79487E-05  1408   0.692E-02
 243 F= -.17664180E+03 E0= -.17659131E+03  d E =-.760523E-04
 curvature:  -7.84 expect dE=-0.737E-03 dE for cont linesearch -0.942E-05
 ZBRENT: bisectioning
 opt :   0.6228  next Energy=  -176.641804 (dE=-0.809E-04)
 bond charge predicted
       N       E                     dE             d eps       ncg     rms          rms(c)
DAV:   1    -0.176641793695E+03    0.27321E-05   -0.13588E-03  1092   0.138E-01    0.232E-02
DAV:   2    -0.176641875060E+03   -0.81366E-04   -0.57431E-04  2096   0.213E-01    0.105E-01
DAV:   3    -0.176641791465E+03    0.83596E-04   -0.38422E-04  2072   0.186E-01    0.171E-02
DAV:   4    -0.176641789434E+03    0.20304E-05   -0.27623E-05   872   0.477E-02
 244 F= -.17664179E+03 E0= -.17659129E+03  d E =-.666896E-04
 curvature:  -4.02 expect dE=-0.216E-03 dE for cont linesearch -0.699E-06
 ZBRENT: interpolating
 opt :   0.6518  next Energy=  -176.641790 (dE=-0.670E-04)
 bond charge predicted
       N       E                     dE             d eps       ncg     rms          rms(c)
DAV:   1    -0.176641793407E+03   -0.19426E-05   -0.14322E-04  1436   0.478E-02    0.141E-02
DAV:   2    -0.176641819696E+03   -0.26288E-04   -0.31699E-04  1800   0.114E-01    0.560E-02
DAV:   3    -0.176641791556E+03    0.28140E-04   -0.20276E-04  1992   0.995E-02    0.124E-02
DAV:   4    -0.176641790517E+03    0.10387E-05   -0.63889E-06   564   0.298E-02
 245 F= -.17664179E+03 E0= -.17659129E+03  d E =-.677727E-04
 curvature:  -1.53 expect dE=-0.848E-04 dE for cont linesearch -0.287E-05
 ZBRENT: interpolating
 opt :   0.6940  next Energy=  -176.641800 (dE=-0.769E-04)
 bond charge predicted
       N       E                     dE             d eps       ncg     rms          rms(c)
DAV:   1    -0.176641793158E+03   -0.16017E-05   -0.22279E-04  1096   0.527E-02    0.678E-03
DAV:   2    -0.176641799526E+03   -0.63680E-05   -0.38073E-05   912   0.639E-02
 246 F= -.17664180E+03 E0= -.17659131E+03  d E =-.767811E-04
 curvature:  -0.43 expect dE=-0.177E-03 dE for cont linesearch -0.518E-06
 ZBRENT: bisectioning
 opt :   0.6729  next Energy=  -176.641801 (dE=-0.778E-04)
 bond charge predicted
       N       E                     dE             d eps       ncg     rms          rms(c)
DAV:   1    -0.176641791140E+03    0.20181E-05   -0.66239E-05  1172   0.610E-02    0.452E-03
DAV:   2    -0.176641794542E+03   -0.34020E-05   -0.19866E-05   656   0.425E-02
 247 F= -.17664179E+03 E0= -.17659130E+03  d E =-.717971E-04
 curvature:  -0.85 expect dE=-0.158E-03 dE for cont linesearch -0.104E-04
 ZBRENT: interpolating
 opt :   0.6890  next Energy=  -176.641800 (dE=-0.769E-04)
 bond charge predicted
       N       E                     dE             d eps       ncg     rms          rms(c)
DAV:   1    -0.176641791923E+03   -0.78345E-06   -0.28992E-05   780   0.490E-02    0.416E-03
DAV:   2    -0.176641793370E+03   -0.14474E-05   -0.12677E-05   564   0.282E-02
 248 F= -.17664179E+03 E0= -.17659130E+03  d E =-.706259E-04
 curvature:  -0.01 expect dE=-0.976E-06 dE for cont linesearch -0.209E-07
 ZBRENT: bisectioning
 opt :   0.6809  next Energy=  -176.641794 (dE=-0.712E-04)
 bond charge predicted
       N       E                     dE             d eps       ncg     rms          rms(c)
DAV:   1    -0.176641791977E+03   -0.54328E-07   -0.83214E-06   556   0.342E-02    0.292E-03
DAV:   2    -0.176641792205E+03   -0.22770E-06   -0.29203E-06   556   0.157E-02
 249 F= -.17664179E+03 E0= -.17659130E+03  d E =-.694605E-04
 curvature:  -0.29 expect dE=-0.158E-04 dE for cont linesearch -0.139E-05
 ZBRENT: interpolating
 opt :   0.6858  next Energy=  -176.641793 (dE=-0.707E-04)
 bond charge predicted
       N       E                     dE             d eps       ncg     rms          rms(c)
DAV:   1    -0.176641792398E+03   -0.42014E-06   -0.19703E-06   556   0.158E-02    0.271E-03
DAV:   2    -0.176641793255E+03   -0.85743E-06   -0.31222E-06   556   0.266E-02
 250 F= -.17664179E+03 E0= -.17659130E+03  d E =-.705104E-04
 curvature:  -0.02 expect dE=-0.167E-05 dE for cont linesearch -0.718E-09
 trial: gam= 0.40493 g(F)=  0.514E-04 g(S)=  0.257E-04 ort =-0.800E-05 (trialstep = 0.551E+00)
 search vector abs. value=  0.388E-03
 bond charge predicted
       N       E                     dE             d eps       ncg     rms          rms(c)
DAV:   1    -0.176641827166E+03   -0.34769E-04   -0.70434E-03  1088   0.306E-01    0.518E-02
DAV:   2    -0.176642332436E+03   -0.50527E-03   -0.30796E-03  2152   0.501E-01    0.275E-01
DAV:   3    -0.176641820687E+03    0.51175E-03   -0.22268E-03  2160   0.425E-01    0.219E-02
DAV:   4    -0.176641830533E+03   -0.98453E-05   -0.15202E-04  1624   0.889E-02    0.262E-02
DAV:   5    -0.176641825231E+03    0.53015E-05   -0.27562E-05   912   0.733E-02
 251 F= -.17664183E+03 E0= -.17659137E+03  d E =-.319763E-04
 ZBRENT: can't locate minimum, use default step
 trial-energy change:   -0.000032  1 .order   -0.000036   -0.000041   -0.000032
 step:   2.2058(harm=  2.5644)  dis= 0.00336  next Energy=  -176.641888 (dE=-0.947E-04)
 reached required accuracy - stopping structural energy minimisation
