<?xml version="1.0" encoding="ISO-8859-1"?>
<modeling>
 <generator>
  <i name="program" type="string">vasp </i>
  <i name="version" type="string">5.4.4.18Apr17-6-g9f103f2a35  </i>
  <i name="subversion" type="string">(build Jul 11 2019 11:52:51) complex            parallel </i>
  <i name="platform" type="string">LinuxIFC </i>
  <i name="date" type="string">2023 11 29 </i>
  <i name="time" type="string">17:43:59 </i>
 </generator>
 <incar>
  <i type="int" name="ISTART">     0</i>
  <i type="string" name="PREC">normal</i>
  <i type="int" name="IBRION">     2</i>
  <i name="EDIFF">      0.00001000</i>
  <i name="EDIFFG">     -0.01000000</i>
  <i type="int" name="NSW">   500</i>
  <i type="int" name="ISIF">     3</i>
  <i name="POTIM">      0.50000000</i>
  <i type="int" name="ISMEAR">     0</i>
  <i name="SIGMA">      0.10000000</i>
  <i name="PSTRESS">      0.00000000</i>
  <i type="logical" name="LWAVE"> F  </i>
  <i type="logical" name="LCHARG"> F  </i>
  <v type="int" name="KPOINT_BSE">    -1     0     0     0</v>
 </incar>
 <structure name="primitive_cell" >
  <crystal>
   <varray name="basis" >
    <v>       6.79806000      -0.03911300       0.86372600 </v>
    <v>      -0.57289100       9.14754400       0.04404400 </v>
    <v>       0.66339500       0.01475800       4.20402200 </v>
   </varray>
   <i name="volume">    256.08090200 </i>
   <varray name="rec_basis" >
    <v>       0.15017061       0.00951912      -0.02373035 </v>
    <v>       0.00069189       0.10936467      -0.00049310 </v>
    <v>      -0.03086015      -0.00310150       0.24274807 </v>
   </varray>
  </crystal>
  <varray name="positions" >
   <v>       0.14128500      -0.35240100       0.46121100 </v>
   <v>       0.18574800      -0.22078500      -0.06490500 </v>
   <v>       0.46159300      -0.19475500       0.30081700 </v>
   <v>      -0.01740600      -0.48701500       0.03647700 </v>
   <v>       0.05701000       0.35709300      -0.49968900 </v>
   <v>      -0.24927500      -0.48320800      -0.35009700 </v>
   <v>      -0.17788100      -0.15748800      -0.38793700 </v>
   <v>       0.32621500       0.45870000      -0.13414500 </v>
   <v>       0.21263700      -0.02225100       0.42241400 </v>
   <v>      -0.46959700       0.48818500       0.26436500 </v>
   <v>      -0.49943100      -0.31240400      -0.22186800 </v>
   <v>      -0.22523400      -0.28593600       0.14110800 </v>
   <v>      -0.01957500      -0.02000900       0.03422700 </v>
   <v>       0.43352600       0.00190000      -0.18961400 </v>
   <v>       0.38216200       0.23261900       0.33940000 </v>
   <v>      -0.19581900       0.27858300       0.12344400 </v>
   <v>       0.16896200       0.21327700      -0.05473800 </v>
   <v>      -0.36034700       0.03262400       0.20762500 </v>
   <v>      -0.10098400       0.11891100      -0.42305300 </v>
   <v>      -0.40327900       0.25548900      -0.27307500 </v>
  </varray>
 </structure>
 <varray name="primitive_index" >
  <v type="int" >        1 </v>
  <v type="int" >       15 </v>
  <v type="int" >       10 </v>
  <v type="int" >        7 </v>
  <v type="int" >       13 </v>
  <v type="int" >       12 </v>
  <v type="int" >       16 </v>
  <v type="int" >       18 </v>
  <v type="int" >        2 </v>
  <v type="int" >        3 </v>
  <v type="int" >       19 </v>
  <v type="int" >        5 </v>
  <v type="int" >        6 </v>
  <v type="int" >       11 </v>
  <v type="int" >        9 </v>
  <v type="int" >        8 </v>
  <v type="int" >       14 </v>
  <v type="int" >        4 </v>
  <v type="int" >       20 </v>
  <v type="int" >       17 </v>
 </varray>
 <kpoints>
  <generation param="Gamma">
   <v type="int" name="divisions">       2        2        3 </v>
   <v name="usershift">      0.00000000       0.00000000       0.00000000 </v>
   <v name="genvec1">      0.50000000      -0.00000000      -0.00000000 </v>
   <v name="genvec2">     -0.00000000       0.50000000      -0.00000000 </v>
   <v name="genvec3">      0.00000000      -0.00000000       0.33333333 </v>
   <v name="shift">      0.00000000       0.00000000       0.00000000 </v>
  </generation>
  <varray name="kpointlist" >
   <v>       0.00000000       0.00000000       0.00000000 </v>
   <v>       0.50000000      -0.00000000      -0.00000000 </v>
   <v>      -0.00000000       0.50000000      -0.00000000 </v>
   <v>       0.50000000       0.50000000      -0.00000000 </v>
   <v>       0.00000000       0.00000000       0.33333333 </v>
   <v>       0.50000000      -0.00000000       0.33333333 </v>
   <v>       0.00000000       0.50000000       0.33333333 </v>
   <v>       0.50000000       0.50000000       0.33333333 </v>
  </varray>
  <varray name="weights" >
   <v>       0.08333333 </v>
   <v>       0.08333333 </v>
   <v>       0.08333333 </v>
   <v>       0.08333333 </v>
   <v>       0.16666667 </v>
   <v>       0.16666667 </v>
   <v>       0.16666667 </v>
   <v>       0.16666667 </v>
  </varray>
 </kpoints>
 <parameters>
  <separator name="general" >
   <i type="string" name="SYSTEM">unknown system</i>
   <i type="logical" name="LCOMPAT"> F  </i>
  </separator>
  <separator name="electronic" >
   <i type="string" name="PREC">normal</i>
   <i name="ENMAX">    267.88200000</i>
   <i name="ENAUG">    511.36800000</i>
   <i name="EDIFF">      0.00001000</i>
   <i type="int" name="IALGO">    38</i>
   <i type="int" name="IWAVPR">    11</i>
   <i type="int" name="NBANDS">    68</i>
   <i name="NELECT">    109.00000000</i>
   <i type="int" name="TURBO">     0</i>
   <i type="int" name="IRESTART">     0</i>
   <i type="int" name="NREBOOT">     0</i>
   <i type="int" name="NMIN">     0</i>
   <i name="EREF">      0.00000000</i>
   <separator name="electronic smearing" >
    <i type="int" name="ISMEAR">     0</i>
    <i name="SIGMA">      0.10000000</i>
    <i name="KSPACING">      0.50000000</i>
    <i type="logical" name="KGAMMA"> T  </i>
   </separator>
   <separator name="electronic projectors" >
    <i type="logical" name="LREAL"> F  </i>
    <v name="ROPT">      0.00000000      0.00000000</v>
    <i type="int" name="LMAXPAW">  -100</i>
    <i type="int" name="LMAXMIX">     2</i>
    <i type="logical" name="NLSPLINE"> F  </i>
   </separator>
   <separator name="electronic startup" >
    <i type="int" name="ISTART">     0</i>
    <i type="int" name="ICHARG">     2</i>
    <i type="int" name="INIWAV">     1</i>
   </separator>
   <separator name="electronic spin" >
    <i type="int" name="ISPIN">     1</i>
    <i type="logical" name="LNONCOLLINEAR"> F  </i>
    <v name="MAGMOM">      1.00000000      1.00000000      1.00000000      1.00000000      1.00000000      1.00000000      1.00000000      1.00000000      1.00000000      1.00000000      1.00000000      1.00000000      1.00000000      1.00000000      1.00000000      1.00000000      1.00000000      1.00000000      1.00000000      1.00000000
</v>
    <i name="NUPDOWN">     -1.00000000</i>
    <i type="logical" name="LSORBIT"> F  </i>
    <v name="SAXIS">      0.00000000      0.00000000      1.00000000</v>
    <i type="logical" name="LSPIRAL"> F  </i>
    <v name="QSPIRAL">      0.00000000      0.00000000      0.00000000</v>
    <i type="logical" name="LZEROZ"> F  </i>
   </separator>
   <separator name="electronic exchange-correlation" >
    <i type="logical" name="LASPH"> F  </i>
    <i type="logical" name="LMETAGGA"> F  </i>
   </separator>
   <separator name="electronic convergence" >
    <i type="int" name="NELM">    60</i>
    <i type="int" name="NELMDL">    -5</i>
    <i type="int" name="NELMIN">     2</i>
    <i name="ENINI">    267.88200000</i>
    <separator name="electronic convergence detail" >
     <i type="logical" name="LDIAG"> T  </i>
     <i type="logical" name="LSUBROT"> F  </i>
     <i name="WEIMIN">      0.00100000</i>
     <i name="EBREAK">      0.00000004</i>
     <i name="DEPER">      0.30000000</i>
     <i type="int" name="NRMM">     4</i>
     <i name="TIME">      0.40000000</i>
    </separator>
   </separator>
   <separator name="electronic mixer" >
    <i name="AMIX">      0.40000000</i>
    <i name="BMIX">      1.00000000</i>
    <i name="AMIN">      0.10000000</i>
    <i name="AMIX_MAG">      1.60000000</i>
    <i name="BMIX_MAG">      1.00000000</i>
    <separator name="electronic mixer details" >
     <i type="int" name="IMIX">     4</i>
     <i type="logical" name="MIXFIRST"> F  </i>
     <i type="int" name="MAXMIX">   -45</i>
     <i name="WC">    100.00000000</i>
     <i type="int" name="INIMIX">     1</i>
     <i type="int" name="MIXPRE">     1</i>
     <i type="int" name="MREMOVE">     5</i>
    </separator>
   </separator>
   <separator name="electronic dipolcorrection" >
    <i type="logical" name="LDIPOL"> F  </i>
    <i type="logical" name="LMONO"> F  </i>
    <i type="int" name="IDIPOL">     0</i>
    <i name="EPSILON">      1.00000000</i>
    <v name="DIPOL">   -100.00000000   -100.00000000   -100.00000000</v>
    <i name="EFIELD">      0.00000000</i>
   </separator>
  </separator>
  <separator name="grids" >
   <i type="int" name="NGX">    28</i>
   <i type="int" name="NGY">    40</i>
   <i type="int" name="NGZ">    18</i>
   <i type="int" name="NGXF">    56</i>
   <i type="int" name="NGYF">    80</i>
   <i type="int" name="NGZF">    36</i>
   <i type="logical" name="ADDGRID"> F  </i>
  </separator>
  <separator name="ionic" >
   <i type="int" name="NSW">   500</i>
   <i type="int" name="IBRION">     2</i>
   <i type="int" name="MDALGO">     0</i>
   <i type="int" name="ISIF">     3</i>
   <i name="PSTRESS">      0.00000000</i>
   <i name="EDIFFG">     -0.01000000</i>
   <i type="int" name="NFREE">     1</i>
   <i name="POTIM">      0.50000000</i>
   <i name="SMASS">     -3.00000000</i>
   <i name="SCALEE">      1.00000000</i>
  </separator>
  <separator name="ionic md" >
   <i name="TEBEG">      0.00010000</i>
   <i name="TEEND">      0.00010000</i>
   <i type="int" name="NBLOCK">     1</i>
   <i type="int" name="KBLOCK">   500</i>
   <i type="int" name="NPACO">   256</i>
   <i name="APACO">     16.00000000</i>
  </separator>
  <separator name="symmetry" >
   <i type="int" name="ISYM">     2</i>
   <i name="SYMPREC">      0.00001000</i>
  </separator>
  <separator name="dos" >
   <i type="int" name="LORBIT">     0</i>
   <v name="RWIGS">     -1.00000000     -1.00000000</v>
   <i type="int" name="NEDOS">   301</i>
   <i name="EMIN">     10.00000000</i>
   <i name="EMAX">    -10.00000000</i>
   <i name="EFERMI">      0.00000000</i>
  </separator>
  <separator name="writing" >
   <i type="int" name="NWRITE">     2</i>
   <i type="logical" name="LWAVE"> F  </i>
   <i type="logical" name="LDOWNSAMPLE"> F  </i>
   <i type="logical" name="LCHARG"> F  </i>
   <i type="logical" name="LPARD"> F  </i>
   <i type="logical" name="LVTOT"> F  </i>
   <i type="logical" name="LVHAR"> F  </i>
   <i type="logical" name="LELF"> F  </i>
   <i type="logical" name="LOPTICS"> F  </i>
   <v name="STM">      0.00000000      0.00000000      0.00000000      0.00000000      0.00000000      0.00000000      0.00000000</v>
  </separator>
  <separator name="performance" >
   <i type="int" name="NPAR">     4</i>
   <i type="int" name="NSIM">     4</i>
   <i type="int" name="NBLK">    -1</i>
   <i type="logical" name="LPLANE"> T  </i>
   <i type="logical" name="LSCALAPACK"> T  </i>
   <i type="logical" name="LSCAAWARE"> F  </i>
   <i type="logical" name="LSCALU"> F  </i>
   <i type="logical" name="LASYNC"> F  </i>
   <i type="logical" name="LORBITALREAL"> F  </i>
  </separator>
  <separator name="miscellaneous" >
   <i type="int" name="IDIOT">     3</i>
   <i type="int" name="ISPECIAL">     0</i>
   <i type="logical" name="LMUSIC"> F  </i>
   <v name="POMASS">     50.94100000     55.84700000</v>
   <v name="DARWINR">      0.00000000      0.00000000</v>
   <v name="DARWINV">      1.00000000      1.00000000</v>
   <i type="logical" name="LCORR"> T  </i>
  </separator>
  <i type="logical" name="GGA_COMPAT"> T  </i>
  <i type="logical" name="LBERRY"> F  </i>
  <i type="int" name="ICORELEVEL">     0</i>
  <i type="logical" name="LDAU"> F  </i>
  <i type="int" name="I_CONSTRAINED_M">     0</i>
  <separator name="electronic exchange-correlation" >
   <i type="string" name="GGA">--</i>
   <i type="int" name="VOSKOWN">     0</i>
   <i type="logical" name="LHFCALC"> F  </i>
   <i type="string" name="PRECFOCK"></i>
   <i type="logical" name="LSYMGRAD"> F  </i>
   <i type="logical" name="LHFONE"> F  </i>
   <i type="logical" name="LRHFCALC"> F  </i>
   <i type="logical" name="LTHOMAS"> F  </i>
   <i type="logical" name="LMODELHF"> F  </i>
   <i name="ENCUT4O">     -1.00000000</i>
   <i type="int" name="EXXOEP">     0</i>
   <i type="int" name="FOURORBIT">     0</i>
   <i name="AEXX">      0.00000000</i>
   <i name="HFALPHA">      0.00000000</i>
   <i name="MCALPHA">      0.00000000</i>
   <i name="ALDAX">      1.00000000</i>
   <i name="AGGAX">      1.00000000</i>
   <i name="ALDAC">      1.00000000</i>
   <i name="AGGAC">      1.00000000</i>
   <i type="int" name="NKREDX">     1</i>
   <i type="int" name="NKREDY">     1</i>
   <i type="int" name="NKREDZ">     1</i>
   <i type="logical" name="SHIFTRED"> F  </i>
   <i type="logical" name="ODDONLY"> F  </i>
   <i type="logical" name="EVENONLY"> F  </i>
   <i type="int" name="LMAXFOCK">     0</i>
   <i type="int" name="NMAXFOCKAE">     0</i>
   <i type="logical" name="LFOCKAEDFT"> F  </i>
   <i name="HFSCREEN">      0.00000000</i>
   <i name="HFSCREENC">      0.00000000</i>
   <i type="int" name="NBANDSGWLOW">     0</i>
  </separator>
  <separator name="vdW DFT" >
   <i type="logical" name="LUSE_VDW"> F  </i>
   <i name="Zab_VDW">     -0.84910000</i>
   <i name="PARAM1">      0.12340000</i>
   <i name="PARAM2">      1.00000000</i>
   <i name="PARAM3">      0.00000000</i>
  </separator>
  <separator name="model GW" >
   <i type="int" name="MODEL_GW">     0</i>
   <i name="MODEL_EPS0">      7.68242706</i>
   <i name="MODEL_ALPHA">      1.00000000</i>
  </separator>
  <separator name="linear response parameters" >
   <i type="logical" name="LEPSILON"> F  </i>
   <i type="logical" name="LRPA"> F  </i>
   <i type="logical" name="LNABLA"> F  </i>
   <i type="logical" name="LVEL"> F  </i>
   <i type="int" name="KINTER">     0</i>
   <i name="CSHIFT">      0.10000000</i>
   <i name="OMEGAMAX">     -1.00000000</i>
   <i name="DEG_THRESHOLD">      0.00200000</i>
   <i name="RTIME">     -0.10000000</i>
   <i name="WPLASMAI">      0.00000000</i>
   <v name="DFIELD">      0.00000000      0.00000000      0.00000000</v>
   <v name="WPLASMA">      0.00000000      0.00000000      0.00000000      0.00000000      0.00000000      0.00000000      0.00000000      0.00000000      0.00000000</v>
  </separator>
  <separator name="orbital magnetization" >
   <i type="logical" name="NUCIND"> F  </i>
   <v name="MAGPOS">      0.00000000      0.00000000      0.00000000</v>
   <i type="logical" name="LNICSALL"> T  </i>
   <i type="logical" name="ORBITALMAG"> F  </i>
   <i type="logical" name="LMAGBLOCH"> F  </i>
   <i type="logical" name="LCHIMAG"> F  </i>
   <i type="logical" name="LGAUGE"> T  </i>
   <i type="int" name="MAGATOM">     0</i>
   <v name="MAGDIPOL">      0.00000000      0.00000000      0.00000000</v>
   <v name="AVECCONST">      0.00000000      0.00000000      0.00000000</v>
  </separator>
  <separator name="response functions" >
   <i type="logical" name="LADDER"> F  </i>
   <i type="logical" name="LRPAFORCE"> F  </i>
   <i type="logical" name="LFXC"> F  </i>
   <i type="logical" name="LHARTREE"> T  </i>
   <i type="int" name="IBSE">     0</i>
   <v type="int" name="KPOINT">    -1     0     0     0</v>
   <i type="logical" name="LTCTE"> F  </i>
   <i type="logical" name="LTETE"> F  </i>
   <i type="logical" name="LTRIPLET"> F  </i>
   <i type="logical" name="LFXCEPS"> F  </i>
   <i type="logical" name="LFXHEG"> F  </i>
   <i type="int" name="NATURALO">     2</i>
   <i type="logical" name="L2ORDER"> F  </i>
   <i type="logical" name="LMP2LT"> F  </i>
   <i type="logical" name="LUSEW"> F  </i>
   <i name="ENCUTGW">     -2.00000000</i>
   <i name="ENCUTGWSOFT">     -2.00000000</i>
   <i name="ENCUTLF">     -1.00000000</i>
   <i type="int" name="LMAXMP2">    -1</i>
   <i name="SCISSOR">      0.00000000</i>
   <i type="int" name="NOMEGA">     0</i>
   <i type="int" name="NOMEGAR">     0</i>
   <i type="int" name="NBANDSGW">    -1</i>
   <i type="int" name="NBANDSO">    -1</i>
   <i type="int" name="NBANDSV">    -1</i>
   <i type="int" name="NELM">     1</i>
   <i type="int" name="NELMHF">     1</i>
   <i type="int" name="DIM">     3</i>
   <i type="int" name="ANTIRES">     0</i>
   <i name="OMEGAMAX">    -30.00000000</i>
   <i name="OMEGAMIN">    -30.00000000</i>
   <i name="OMEGATL">   -200.00000000</i>
   <i type="int" name="OMEGAGRID">   140</i>
   <i name="CSHIFT">     -0.10000000</i>
   <i type="logical" name="SELFENERGY"> F  </i>
   <i type="logical" name="LSPECTRAL"> F  </i>
   <i type="logical" name="LSPECTRALGW"> F  </i>
   <i type="logical" name="LSINGLES"> F  </i>
   <i type="logical" name="LFERMIGW"> F  </i>
   <i type="logical" name="ODDONLYGW"> F  </i>
   <i type="logical" name="EVENONLYGW"> F  </i>
   <i type="int" name="NKREDLFX">     1</i>
   <i type="int" name="NKREDLFY">     1</i>
   <i type="int" name="NKREDLFZ">     1</i>
   <i type="int" name="MAXMEM">  2800</i>
   <i type="int" name="TELESCOPE">     0</i>
   <i type="int" name="TAUPAR">     1</i>
   <i type="int" name="OMEGAPAR">    -1</i>
   <i name="LAMBDA">      1.00000000</i>
  </separator>
  <separator name="External order field" >
   <i name="OFIELD_KAPPA">      0.00000000</i>
   <v name="OFIELD_K">      0.00000000      0.00000000      0.00000000</v>
   <i name="OFIELD_Q6_NEAR">      0.00000000</i>
   <i name="OFIELD_Q6_FAR">      0.00000000</i>
   <i name="OFIELD_A">      0.00000000</i>
  </separator>
 </parameters>
 <atominfo>
  <atoms>      20 </atoms>
  <types>       2 </types>
  <array name="atoms" >
   <dimension dim="1">ion</dimension>
   <field type="string">element</field>
   <field type="int">atomtype</field>
   <set>
    <rc><c>V </c><c>   1</c></rc>
    <rc><c>V </c><c>   1</c></rc>
    <rc><c>V </c><c>   1</c></rc>
    <rc><c>V </c><c>   1</c></rc>
    <rc><c>V </c><c>   1</c></rc>
    <rc><c>V </c><c>   1</c></rc>
    <rc><c>V </c><c>   1</c></rc>
    <rc><c>V </c><c>   1</c></rc>
    <rc><c>V </c><c>   1</c></rc>
    <rc><c>V </c><c>   1</c></rc>
    <rc><c>V </c><c>   1</c></rc>
    <rc><c>V </c><c>   1</c></rc>
    <rc><c>V </c><c>   1</c></rc>
    <rc><c>V </c><c>   1</c></rc>
    <rc><c>V </c><c>   1</c></rc>
    <rc><c>V </c><c>   1</c></rc>
    <rc><c>V </c><c>   1</c></rc>
    <rc><c>Fe</c><c>   2</c></rc>
    <rc><c>Fe</c><c>   2</c></rc>
    <rc><c>Fe</c><c>   2</c></rc>
   </set>
  </array>
  <array name="atomtypes" >
   <dimension dim="1">type</dimension>
   <field type="int">atomspertype</field>
   <field type="string">element</field>
   <field>mass</field>
   <field>valence</field>
   <field type="string">pseudopotential</field>
   <set>
    <rc><c>  17</c><c>V </c><c>     50.94100000</c><c>      5.00000000</c><c>  PAW_PBE V 08Apr2002                   </c></rc>
    <rc><c>   3</c><c>Fe</c><c>     55.84700000</c><c>      8.00000000</c><c>  PAW_PBE Fe 06Sep2000                  </c></rc>
   </set>
  </array>
 </atominfo>
 <structure name="initialpos" >
  <crystal>
   <varray name="basis" >
    <v>       6.79806000      -0.03911300       0.86372600 </v>
    <v>      -0.57289100       9.14754400       0.04404400 </v>
    <v>       0.66339500       0.01475800       4.20402200 </v>
   </varray>
   <i name="volume">    256.08090200 </i>
   <varray name="rec_basis" >
    <v>       0.15017061       0.00951912      -0.02373035 </v>
    <v>       0.00069189       0.10936467      -0.00049310 </v>
    <v>      -0.03086015      -0.00310150       0.24274807 </v>
   </varray>
  </crystal>
  <varray name="positions" >
   <v>       0.14128500       0.64759900       0.46121100 </v>
   <v>       0.21263700       0.97774900       0.42241400 </v>
   <v>       0.53040300       0.48818500       0.26436500 </v>
   <v>       0.63965300       0.03262400       0.20762500 </v>
   <v>       0.77476600       0.71406400       0.14110800 </v>
   <v>       0.98042500       0.97999100       0.03422700 </v>
   <v>       0.98259400       0.51298500       0.03647700 </v>
   <v>       0.80418100       0.27858300       0.12344400 </v>
   <v>       0.38216200       0.23261900       0.33940000 </v>
   <v>       0.46159300       0.80524500       0.30081700 </v>
   <v>       0.43352600       0.00190000       0.81038600 </v>
   <v>       0.75072500       0.51679200       0.64990300 </v>
   <v>       0.05701000       0.35709300       0.50031100 </v>
   <v>       0.16896200       0.21327700       0.94526200 </v>
   <v>       0.18574800       0.77921500       0.93509500 </v>
   <v>       0.82211900       0.84251200       0.61206300 </v>
   <v>       0.59672100       0.25548900       0.72692500 </v>
   <v>       0.32621500       0.45870000       0.86585500 </v>
   <v>       0.50056900       0.68759600       0.77813200 </v>
   <v>       0.89901600       0.11891100       0.57694700 </v>
  </varray>
 </structure>
 <calculation>
  <scstep>
   <time name="dav">    0.57    0.57</time>
   <time name="total">    0.59    0.59</time>
   <energy>
    <i name="alphaZ">    558.90555197 </i>
    <i name="ewald">  -5309.07002202 </i>
    <i name="hartreedc">   -803.95709056 </i>
    <i name="XCdc">   -770.21059049 </i>
    <i name="pawpsdc">   5171.05454107 </i>
    <i name="pawaedc">  -4356.08836938 </i>
    <i name="eentropy">     -0.06905006 </i>
    <i name="bandstr">   1462.40435264 </i>
    <i name="atom">   4687.48422623 </i>
    <i name="e_fr_energy">    640.45354939 </i>
    <i name="e_wo_entrp">    640.52259946 </i>
    <i name="e_0_energy">    640.48807443 </i>
   </energy>
  </scstep>
  <scstep>
   <time name="dav">    0.59    0.59</time>
   <time name="total">    0.59    0.59</time>
   <energy>
    <i name="e_fr_energy">    -70.02369189 </i>
    <i name="e_wo_entrp">    -69.95717401 </i>
    <i name="e_0_energy">    -69.99043295 </i>
   </energy>
  </scstep>
  <scstep>
   <time name="dav">    0.90    0.90</time>
   <time name="total">    0.90    0.90</time>
   <energy>
    <i name="e_fr_energy">   -189.24000058 </i>
    <i name="e_wo_entrp">   -189.17376032 </i>
    <i name="e_0_energy">   -189.20688045 </i>
   </energy>
  </scstep>
  <scstep>
   <time name="dav">    0.83    0.83</time>
   <time name="total">    0.83    0.83</time>
   <energy>
    <i name="e_fr_energy">   -201.62573658 </i>
    <i name="e_wo_entrp">   -201.54174728 </i>
    <i name="e_0_energy">   -201.58374193 </i>
   </energy>
  </scstep>
  <scstep>
   <time name="dav">    0.81    0.81</time>
   <time name="total">    0.84    0.84</time>
   <energy>
    <i name="e_fr_energy">   -202.28016555 </i>
    <i name="e_wo_entrp">   -202.19259503 </i>
    <i name="e_0_energy">   -202.23638029 </i>
   </energy>
  </scstep>
  <scstep>
   <time name="dav">    0.92    0.92</time>
   <time name="total">    0.97    0.97</time>
   <energy>
    <i name="e_fr_energy">   -229.38749229 </i>
    <i name="e_wo_entrp">   -229.28445574 </i>
    <i name="e_0_energy">   -229.33597402 </i>
   </energy>
  </scstep>
  <scstep>
   <time name="dav">    0.94    0.94</time>
   <time name="total">    0.98    0.99</time>
   <energy>
    <i name="e_fr_energy">   -180.63111218 </i>
    <i name="e_wo_entrp">   -180.52499425 </i>
    <i name="e_0_energy">   -180.57805321 </i>
   </energy>
  </scstep>
  <scstep>
   <time name="dav">    0.99    0.99</time>
   <time name="total">    1.04    1.04</time>
   <energy>
    <i name="e_fr_energy">   -201.63795096 </i>
    <i name="e_wo_entrp">   -201.52823408 </i>
    <i name="e_0_energy">   -201.58309252 </i>
   </energy>
  </scstep>
  <scstep>
   <time name="dav">    0.93    0.93</time>
   <time name="total">    0.98    0.98</time>
   <energy>
    <i name="e_fr_energy">   -175.11470739 </i>
    <i name="e_wo_entrp">   -174.99973473 </i>
    <i name="e_0_energy">   -175.05722106 </i>
   </energy>
  </scstep>
  <scstep>
   <time name="dav">    0.93    0.93</time>
   <time name="total">    0.97    0.97</time>
   <energy>
    <i name="e_fr_energy">   -175.40818012 </i>
    <i name="e_wo_entrp">   -175.29178399 </i>
    <i name="e_0_energy">   -175.34998206 </i>
   </energy>
  </scstep>
  <scstep>
   <time name="dav">    0.82    0.82</time>
   <time name="total">    0.87    0.87</time>
   <energy>
    <i name="e_fr_energy">   -175.33479533 </i>
    <i name="e_wo_entrp">   -175.21663157 </i>
    <i name="e_0_energy">   -175.27571345 </i>
   </energy>
  </scstep>
  <scstep>
   <time name="dav">    0.89    0.89</time>
   <time name="total">    0.94    0.94</time>
   <energy>
    <i name="e_fr_energy">   -175.31856825 </i>
    <i name="e_wo_entrp">   -175.19833345 </i>
    <i name="e_0_energy">   -175.25845085 </i>
   </energy>
  </scstep>
  <scstep>
   <time name="dav">    0.97    0.98</time>
   <time name="total">    1.02    1.02</time>
   <energy>
    <i name="e_fr_energy">   -175.24228970 </i>
    <i name="e_wo_entrp">   -175.11293770 </i>
    <i name="e_0_energy">   -175.17761370 </i>
   </energy>
  </scstep>
  <scstep>
   <time name="dav">    0.96    0.96</time>
   <time name="total">    1.00    1.01</time>
   <energy>
    <i name="e_fr_energy">   -175.13455396 </i>
    <i name="e_wo_entrp">   -175.00311259 </i>
    <i name="e_0_energy">   -175.06883327 </i>
   </energy>
  </scstep>
  <scstep>
   <time name="dav">    0.90    0.90</time>
   <time name="total">    0.95    0.95</time>
   <energy>
    <i name="e_fr_energy">   -174.92349257 </i>
    <i name="e_wo_entrp">   -174.79753456 </i>
    <i name="e_0_energy">   -174.86051356 </i>
   </energy>
  </scstep>
  <scstep>
   <time name="dav">    0.89    0.89</time>
   <time name="total">    0.94    0.94</time>
   <energy>
    <i name="e_fr_energy">   -174.89505873 </i>
    <i name="e_wo_entrp">   -174.76832557 </i>
    <i name="e_0_energy">   -174.83169215 </i>
   </energy>
  </scstep>
  <scstep>
   <time name="dav">    0.88    0.88</time>
   <time name="total">    0.92    0.92</time>
   <energy>
    <i name="e_fr_energy">   -174.88755514 </i>
    <i name="e_wo_entrp">   -174.76265689 </i>
    <i name="e_0_energy">   -174.82510602 </i>
   </energy>
  </scstep>
  <scstep>
   <time name="dav">    0.87    0.87</time>
   <time name="total">    0.92    0.92</time>
   <energy>
    <i name="e_fr_energy">   -174.88620849 </i>
    <i name="e_wo_entrp">   -174.75933398 </i>
    <i name="e_0_energy">   -174.82277123 </i>
   </energy>
  </scstep>
  <scstep>
   <time name="dav">    0.88    0.88</time>
   <time name="total">    0.93    0.93</time>
   <energy>
    <i name="e_fr_energy">   -174.86565396 </i>
    <i name="e_wo_entrp">   -174.74023709 </i>
    <i name="e_0_energy">   -174.80294553 </i>
   </energy>
  </scstep>
  <scstep>
   <time name="dav">    0.92    0.92</time>
   <time name="total">    0.97    0.97</time>
   <energy>
    <i name="e_fr_energy">   -174.85097394 </i>
    <i name="e_wo_entrp">   -174.72649619 </i>
    <i name="e_0_energy">   -174.78873507 </i>
   </energy>
  </scstep>
  <scstep>
   <time name="dav">    0.80    0.80</time>
   <time name="total">    0.85    0.85</time>
   <energy>
    <i name="e_fr_energy">   -174.85165270 </i>
    <i name="e_wo_entrp">   -174.72676394 </i>
    <i name="e_0_energy">   -174.78920832 </i>
   </energy>
  </scstep>
  <scstep>
   <time name="dav">    0.83    0.83</time>
   <time name="total">    0.87    0.87</time>
   <energy>
    <i name="e_fr_energy">   -174.84936933 </i>
    <i name="e_wo_entrp">   -174.72507089 </i>
    <i name="e_0_energy">   -174.78722011 </i>
   </energy>
  </scstep>
  <scstep>
   <time name="dav">    0.88    0.88</time>
   <time name="total">    0.93    0.93</time>
   <energy>
    <i name="e_fr_energy">   -174.84860028 </i>
    <i name="e_wo_entrp">   -174.72441648 </i>
    <i name="e_0_energy">   -174.78650838 </i>
   </energy>
  </scstep>
  <scstep>
   <time name="dav">    0.91    0.91</time>
   <time name="total">    0.95    0.95</time>
   <energy>
    <i name="e_fr_energy">   -174.84791511 </i>
    <i name="e_wo_entrp">   -174.72431429 </i>
    <i name="e_0_energy">   -174.78611470 </i>
   </energy>
  </scstep>
  <scstep>
   <time name="dav">    0.76    0.76</time>
   <time name="total">    0.80    0.80</time>
   <energy>
    <i name="e_fr_energy">   -174.84796031 </i>
    <i name="e_wo_entrp">   -174.72420595 </i>
    <i name="e_0_energy">   -174.78608313 </i>
   </energy>
  </scstep>
  <scstep>
   <time name="dav">    0.78    0.78</time>
   <time name="total">    0.83    0.83</time>
   <energy>
    <i name="e_fr_energy">   -174.84792804 </i>
    <i name="e_wo_entrp">   -174.72428418 </i>
    <i name="e_0_energy">   -174.78610611 </i>
   </energy>
  </scstep>
  <scstep>
   <time name="dav">    0.47    0.47</time>
   <time name="total">    0.49    0.49</time>
   <energy>
    <i name="alphaZ">    558.90555197 </i>
    <i name="ewald">  -5309.07002202 </i>
    <i name="hartreedc">   -640.66010357 </i>
    <i name="XCdc">   -768.53790351 </i>
    <i name="pawpsdc">   7806.43328347 </i>
    <i name="pawaedc">  -7004.60504218 </i>
    <i name="eentropy">     -0.12362833 </i>
    <i name="bandstr">    495.32570965 </i>
    <i name="atom">   4687.48422623 </i>
    <i name="e_fr_energy">   -174.84792829 </i>
    <i name="e_wo_entrp">   -174.72429996 </i>
    <i name="e_0_energy">   -174.78611413 </i>
   </energy>
  </scstep>
  <structure>
   <crystal>
    <varray name="basis" >
     <v>       6.79806000      -0.03911300       0.86372600 </v>
     <v>      -0.57289100       9.14754400       0.04404400 </v>
     <v>       0.66339500       0.01475800       4.20402200 </v>
    </varray>
    <i name="volume">    256.08090200 </i>
    <varray name="rec_basis" >
     <v>       0.15017061       0.00951912      -0.02373035 </v>
     <v>       0.00069189       0.10936467      -0.00049310 </v>
     <v>      -0.03086015      -0.00310150       0.24274807 </v>
    </varray>
   </crystal>
   <varray name="positions" >
    <v>       0.14128500       0.64759900       0.46121100 </v>
    <v>       0.21263700       0.97774900       0.42241400 </v>
    <v>       0.53040300       0.48818500       0.26436500 </v>
    <v>       0.63965300       0.03262400       0.20762500 </v>
    <v>       0.77476600       0.71406400       0.14110800 </v>
    <v>       0.98042500       0.97999100       0.03422700 </v>
    <v>       0.98259400       0.51298500       0.03647700 </v>
    <v>       0.80418100       0.27858300       0.12344400 </v>
    <v>       0.38216200       0.23261900       0.33940000 </v>
    <v>       0.46159300       0.80524500       0.30081700 </v>
    <v>       0.43352600       0.00190000       0.81038600 </v>
    <v>       0.75072500       0.51679200       0.64990300 </v>
    <v>       0.05701000       0.35709300       0.50031100 </v>
    <v>       0.16896200       0.21327700       0.94526200 </v>
    <v>       0.18574800       0.77921500       0.93509500 </v>
    <v>       0.82211900       0.84251200       0.61206300 </v>
    <v>       0.59672100       0.25548900       0.72692500 </v>
    <v>       0.32621500       0.45870000       0.86585500 </v>
    <v>       0.50056900       0.68759600       0.77813200 </v>
    <v>       0.89901600       0.11891100       0.57694700 </v>
   </varray>
  </structure>
  <varray name="forces" >
   <v>      -0.23549871      -0.26357839       0.03677106 </v>
   <v>      -0.35972820       0.25902186       0.01392931 </v>
   <v>      -0.81796826      -0.25657633       0.06522422 </v>
   <v>       0.37625203       0.95203615      -0.04485248 </v>
   <v>       0.75491328      -0.28905336      -0.15062566 </v>
   <v>      -0.16052642      -0.08745922       0.02216537 </v>
   <v>       0.77358258      -0.26748231      -0.16773047 </v>
   <v>      -0.15863358      -0.07780595       0.06652310 </v>
   <v>      -0.06499508       0.13753128       0.00955520 </v>
   <v>       0.30711418      -0.13272296      -0.05952134 </v>
   <v>       0.16556561      -0.12645100      -0.01493835 </v>
   <v>       0.20877788       0.01925467      -0.01769936 </v>
   <v>      -0.26859391       0.00736162       0.12249386 </v>
   <v>       0.11445792       0.69097516      -0.07132354 </v>
   <v>      -0.20026679      -0.14650393      -0.00160328 </v>
   <v>      -0.24357104       0.08814906       0.12139745 </v>
   <v>      -0.12119607       0.27321661       0.02259057 </v>
   <v>       0.05412525      -0.74054139       0.02393458 </v>
   <v>      -0.26950355       0.01478403       0.00343032 </v>
   <v>       0.14569287      -0.05415559       0.02027942 </v>
  </varray>
  <varray name="stress" >
   <v>      15.17439197      11.14605806      13.60714949 </v>
   <v>      11.14605809      15.84586325      -0.07765777 </v>
   <v>      13.60714945      -0.07765783      12.31448792 </v>
  </varray>
  <energy>
   <i name="e_fr_energy">   -174.84792829 </i>
   <i name="e_wo_entrp">   -174.78611413 </i>
   <i name="e_0_energy">     -0.12362833 </i>
  </energy>
  <time name="totalsc">   25.05   25.08</time>
 </calculation>
 <calculation>
  <scstep>
   <time name="dav">    0.55    0.55</time>
   <time name="total">    0.59    0.59</time>
   <energy>
    <i name="alphaZ">    549.69613052 </i>
    <i name="ewald">  -5278.72452069 </i>
    <i name="hartreedc">   -638.36184078 </i>
    <i name="XCdc">   -769.48369386 </i>
    <i name="pawpsdc">   7806.61018051 </i>
    <i name="pawaedc">  -7004.78001762 </i>
    <i name="eentropy">     -0.13407193 </i>
    <i name="bandstr">    472.40999074 </i>
    <i name="atom">   4687.48422623 </i>
    <i name="e_fr_energy">   -175.28361688 </i>
    <i name="e_wo_entrp">   -175.14954496 </i>
    <i name="e_0_energy">   -175.21658092 </i>
   </energy>
  </scstep>
  <scstep>
   <time name="dav">    0.90    0.90</time>
   <time name="total">    0.95    0.95</time>
   <energy>
    <i name="e_fr_energy">   -186.73534279 </i>
    <i name="e_wo_entrp">   -186.64594385 </i>
    <i name="e_0_energy">   -186.69064332 </i>
   </energy>
  </scstep>
  <scstep>
   <time name="dav">    0.89    0.89</time>
   <time name="total">    0.93    0.93</time>
   <energy>
    <i name="e_fr_energy">   -174.86918862 </i>
    <i name="e_wo_entrp">   -174.74774223 </i>
    <i name="e_0_energy">   -174.80846542 </i>
   </energy>
  </scstep>
  <scstep>
   <time name="dav">    0.87    0.87</time>
   <time name="total">    0.91    0.92</time>
   <energy>
    <i name="e_fr_energy">   -175.18776034 </i>
    <i name="e_wo_entrp">   -175.06270683 </i>
    <i name="e_0_energy">   -175.12523359 </i>
   </energy>
  </scstep>
  <scstep>
   <time name="dav">    0.93    0.93</time>
   <time name="total">    0.98    0.98</time>
   <energy>
    <i name="e_fr_energy">   -175.11750992 </i>
    <i name="e_wo_entrp">   -174.99167367 </i>
    <i name="e_0_energy">   -175.05459179 </i>
   </energy>
  </scstep>
  <scstep>
   <time name="dav">    0.88    0.88</time>
   <time name="total">    0.93    0.93</time>
   <energy>
    <i name="e_fr_energy">   -175.09339729 </i>
    <i name="e_wo_entrp">   -174.96745916 </i>
    <i name="e_0_energy">   -175.03042822 </i>
   </energy>
  </scstep>
  <scstep>
   <time name="dav">    0.90    0.90</time>
   <time name="total">    0.94    0.95</time>
   <energy>
    <i name="e_fr_energy">   -175.09456919 </i>
    <i name="e_wo_entrp">   -174.96997856 </i>
    <i name="e_0_energy">   -175.03227388 </i>
   </energy>
  </scstep>
  <scstep>
   <time name="dav">    0.87    0.87</time>
   <time name="total">    0.91    0.91</time>
   <energy>
    <i name="e_fr_energy">   -175.07475166 </i>
    <i name="e_wo_entrp">   -174.94847659 </i>
    <i name="e_0_energy">   -175.01161413 </i>
   </energy>
  </scstep>
  <scstep>
   <time name="dav">    0.88    0.88</time>
   <time name="total">    0.93    0.93</time>
   <energy>
    <i name="e_fr_energy">   -175.07904800 </i>
    <i name="e_wo_entrp">   -174.95256290 </i>
    <i name="e_0_energy">   -175.01580545 </i>
   </energy>
  </scstep>
  <scstep>
   <time name="dav">    0.88    0.88</time>
   <time name="total">    0.92    0.92</time>
   <energy>
    <i name="e_fr_energy">   -175.07322866 </i>
    <i name="e_wo_entrp">   -174.94739291 </i>
    <i name="e_0_energy">   -175.01031078 </i>
   </energy>
  </scstep>
  <scstep>
   <time name="dav">    0.87    0.87</time>
   <time name="total">    0.91    0.91</time>
   <energy>
    <i name="e_fr_energy">   -175.07274327 </i>
    <i name="e_wo_entrp">   -174.94689975 </i>
    <i name="e_0_energy">   -175.00982151 </i>
   </energy>
  </scstep>
  <scstep>
   <time name="dav">    0.78    0.78</time>
   <time name="total">    0.83    0.83</time>
   <energy>
    <i name="e_fr_energy">   -175.07248137 </i>
    <i name="e_wo_entrp">   -174.94693624 </i>
    <i name="e_0_energy">   -175.00970880 </i>
   </energy>
  </scstep>
  <scstep>
   <time name="dav">    0.78    0.78</time>
   <time name="total">    0.83    0.83</time>
   <energy>
    <i name="e_fr_energy">   -175.07228153 </i>
    <i name="e_wo_entrp">   -174.94672291 </i>
    <i name="e_0_energy">   -175.00950222 </i>
   </energy>
  </scstep>
  <scstep>
   <time name="dav">    0.76    0.76</time>
   <time name="total">    0.81    0.81</time>
   <energy>
    <i name="e_fr_energy">   -175.07230829 </i>
    <i name="e_wo_entrp">   -174.94667747 </i>
    <i name="e_0_energy">   -175.00949288 </i>
   </energy>
  </scstep>
  <scstep>
   <time name="dav">    0.78    0.78</time>
   <time name="total">    0.82    0.82</time>
   <energy>
    <i name="e_fr_energy">   -175.07228154 </i>
    <i name="e_wo_entrp">   -174.94670192 </i>
    <i name="e_0_energy">   -175.00949173 </i>
   </energy>
  </scstep>
  <scstep>
   <time name="dav">    0.65    0.65</time>
   <time name="total">    0.70    0.70</time>
   <energy>
    <i name="e_fr_energy">   -175.07229414 </i>
    <i name="e_wo_entrp">   -174.94673369 </i>
    <i name="e_0_energy">   -175.00951392 </i>
   </energy>
  </scstep>
  <scstep>
   <time name="dav">    0.47    0.47</time>
   <time name="total">    0.51    0.51</time>
   <energy>
    <i name="e_fr_energy">   -175.07228352 </i>
    <i name="e_wo_entrp">   -174.94668048 </i>
    <i name="e_0_energy">   -175.00948200 </i>
   </energy>
  </scstep>
  <scstep>
   <time name="dav">    0.39    0.40</time>
   <time name="total">    0.42    0.42</time>
   <energy>
    <i name="alphaZ">    549.69613052 </i>
    <i name="ewald">  -5278.72452069 </i>
    <i name="hartreedc">   -647.81826566 </i>
    <i name="XCdc">   -769.24408901 </i>
    <i name="pawpsdc">   7651.01901775 </i>
    <i name="pawaedc">  -6848.13764299 </i>
    <i name="eentropy">     -0.12559240 </i>
    <i name="bandstr">    480.77845212 </i>
    <i name="atom">   4687.48422623 </i>
    <i name="e_fr_energy">   -175.07228414 </i>
    <i name="e_wo_entrp">   -174.94669174 </i>
    <i name="e_0_energy">   -175.00948794 </i>
   </energy>
  </scstep>
  <structure>
   <crystal>
    <varray name="basis" >
     <v>       6.84219388      -0.01016495       0.90349106 </v>
     <v>      -0.53670239       9.20096493       0.04097380 </v>
     <v>       0.68939413       0.01757305       4.22746126 </v>
    </varray>
    <i name="volume">    260.37119407 </i>
    <varray name="rec_basis" >
     <v>       0.14938674       0.00882254      -0.02439795 </v>
     <v>       0.00022602       0.10869961      -0.00048871 </v>
     <v>      -0.03192905      -0.00293910       0.24176764 </v>
    </varray>
   </crystal>
   <varray name="positions" >
    <v>       0.13941576       0.64619961       0.46203166 </v>
    <v>       0.21013391       0.97910327       0.42307392 </v>
    <v>       0.52428463       0.48680244       0.26638499 </v>
    <v>       0.64286736       0.03766061       0.20639714 </v>
    <v>       0.78027476       0.71256772       0.13826340 </v>
    <v>       0.97919651       0.97952368       0.03473865 </v>
    <v>       0.98826750       0.51160356       0.03340107 </v>
    <v>       0.80291987       0.27816562       0.12447085 </v>
    <v>       0.38174335       0.23334222       0.33958808 </v>
    <v>       0.46382512       0.80455642       0.29968259 </v>
    <v>       0.43468449       0.00123872       0.80998349 </v>
    <v>       0.75226662       0.51690098       0.64938202 </v>
    <v>       0.05492728       0.35711996       0.50214428 </v>
    <v>       0.17019017       0.21692813       0.94415295 </v>
    <v>       0.18423170       0.77843539       0.93539630 </v>
    <v>       0.82025592       0.84296606       0.61383410 </v>
    <v>       0.59594259       0.25692592       0.72732911 </v>
    <v>       0.32623964       0.45479411       0.86616552 </v>
    <v>       0.49861941       0.68766492       0.77857119 </v>
    <v>       0.90002340       0.11862965       0.57697569 </v>
   </varray>
  </structure>
  <varray name="forces" >
   <v>      -0.14311039      -0.14156587      -0.01998914 </v>
   <v>      -0.13077822       0.12387552      -0.04339602 </v>
   <v>      -0.48964721      -0.09380935       0.02462711 </v>
   <v>       0.12362859       0.51137547      -0.00599350 </v>
   <v>       0.37953735      -0.30725696      -0.10588222 </v>
   <v>      -0.08572169      -0.02112770       0.04489382 </v>
   <v>       0.56995643      -0.22465788      -0.09500713 </v>
   <v>      -0.08332770       0.09000902       0.05153207 </v>
   <v>      -0.00911755       0.04867900      -0.01329322 </v>
   <v>       0.30214921       0.02534876      -0.10354345 </v>
   <v>       0.09954647      -0.02953857       0.00564084 </v>
   <v>       0.03224653       0.12215598       0.02782640 </v>
   <v>      -0.30260082      -0.08262987       0.02754953 </v>
   <v>       0.02424284       0.37276203      -0.04064048 </v>
   <v>      -0.07775016      -0.02173820       0.03396217 </v>
   <v>      -0.23058365       0.02739017       0.11071529 </v>
   <v>      -0.01782842       0.13376144       0.04201383 </v>
   <v>       0.11449886      -0.55399681       0.00586339 </v>
   <v>      -0.12601822       0.00769512       0.02839528 </v>
   <v>       0.05067775       0.01326870       0.02472542 </v>
  </varray>
  <varray name="stress" >
   <v>     -19.22968680       7.27681554       8.31715528 </v>
   <v>       7.27681538     -16.82152745      -0.13633823 </v>
   <v>       8.31715517      -0.13633826     -22.11335762 </v>
  </varray>
  <energy>
   <i name="e_fr_energy">   -175.07228414 </i>
   <i name="e_wo_entrp">   -175.00948794 </i>
   <i name="e_0_energy">     -0.12559240 </i>
  </energy>
  <time name="totalsc">   16.00   16.02</time>
 </calculation>
 <calculation>
  <scstep>
   <time name="dav">    0.54    0.54</time>
   <time name="total">    0.59    0.59</time>
   <energy>
    <i name="alphaZ">    543.85193267 </i>
    <i name="ewald">  -5257.89985893 </i>
    <i name="hartreedc">   -647.32447114 </i>
    <i name="XCdc">   -769.85620308 </i>
    <i name="pawpsdc">   7650.87496442 </i>
    <i name="pawaedc">  -6847.99752675 </i>
    <i name="eentropy">     -0.13004592 </i>
    <i name="bandstr">    465.79651770 </i>
    <i name="atom">   4687.48422623 </i>
    <i name="e_fr_energy">   -175.20046481 </i>
    <i name="e_wo_entrp">   -175.07041889 </i>
    <i name="e_0_energy">   -175.13544185 </i>
   </energy>
  </scstep>
  <scstep>
   <time name="dav">    0.93    0.93</time>
   <time name="total">    0.97    0.97</time>
   <energy>
    <i name="e_fr_energy">   -180.19338467 </i>
    <i name="e_wo_entrp">   -180.10445064 </i>
    <i name="e_0_energy">   -180.14891765 </i>
   </energy>
  </scstep>
  <scstep>
   <time name="dav">    0.90    0.90</time>
   <time name="total">    0.95    0.95</time>
   <energy>
    <i name="e_fr_energy">   -175.03624879 </i>
    <i name="e_wo_entrp">   -174.91261665 </i>
    <i name="e_0_energy">   -174.97443272 </i>
   </energy>
  </scstep>
  <scstep>
   <time name="dav">    0.81    0.81</time>
   <time name="total">    0.85    0.85</time>
   <energy>
    <i name="e_fr_energy">   -175.14332073 </i>
    <i name="e_wo_entrp">   -175.01962212 </i>
    <i name="e_0_energy">   -175.08147143 </i>
   </energy>
  </scstep>
  <scstep>
   <time name="dav">    0.92    0.92</time>
   <time name="total">    0.96    0.96</time>
   <energy>
    <i name="e_fr_energy">   -175.12290548 </i>
    <i name="e_wo_entrp">   -174.99825848 </i>
    <i name="e_0_energy">   -175.06058198 </i>
   </energy>
  </scstep>
  <scstep>
   <time name="dav">    0.90    0.90</time>
   <time name="total">    0.94    0.94</time>
   <energy>
    <i name="e_fr_energy">   -175.12176118 </i>
    <i name="e_wo_entrp">   -174.99781801 </i>
    <i name="e_0_energy">   -175.05978960 </i>
   </energy>
  </scstep>
  <scstep>
   <time name="dav">    0.88    0.88</time>
   <time name="total">    0.92    0.92</time>
   <energy>
    <i name="e_fr_energy">   -175.11634164 </i>
    <i name="e_wo_entrp">   -174.99271357 </i>
    <i name="e_0_energy">   -175.05452761 </i>
   </energy>
  </scstep>
  <scstep>
   <time name="dav">    0.91    0.91</time>
   <time name="total">    0.96    0.96</time>
   <energy>
    <i name="e_fr_energy">   -175.11055077 </i>
    <i name="e_wo_entrp">   -174.98608153 </i>
    <i name="e_0_energy">   -175.04831615 </i>
   </energy>
  </scstep>
  <scstep>
   <time name="dav">    0.87    0.88</time>
   <time name="total">    0.92    0.92</time>
   <energy>
    <i name="e_fr_energy">   -175.11143855 </i>
    <i name="e_wo_entrp">   -174.98676386 </i>
    <i name="e_0_energy">   -175.04910120 </i>
   </energy>
  </scstep>
  <scstep>
   <time name="dav">    0.88    0.88</time>
   <time name="total">    0.92    0.93</time>
   <energy>
    <i name="e_fr_energy">   -175.10962502 </i>
    <i name="e_wo_entrp">   -174.98551584 </i>
    <i name="e_0_energy">   -175.04757043 </i>
   </energy>
  </scstep>
  <scstep>
   <time name="dav">    0.84    0.84</time>
   <time name="total">    0.89    0.89</time>
   <energy>
    <i name="e_fr_energy">   -175.10952563 </i>
    <i name="e_wo_entrp">   -174.98524310 </i>
    <i name="e_0_energy">   -175.04738436 </i>
   </energy>
  </scstep>
  <scstep>
   <time name="dav">    0.77    0.77</time>
   <time name="total">    0.81    0.81</time>
   <energy>
    <i name="e_fr_energy">   -175.10945827 </i>
    <i name="e_wo_entrp">   -174.98541776 </i>
    <i name="e_0_energy">   -175.04743801 </i>
   </energy>
  </scstep>
  <scstep>
   <time name="dav">    0.78    0.78</time>
   <time name="total">    0.82    0.82</time>
   <energy>
    <i name="e_fr_energy">   -175.10938332 </i>
    <i name="e_wo_entrp">   -174.98528644 </i>
    <i name="e_0_energy">   -175.04733488 </i>
   </energy>
  </scstep>
  <scstep>
   <time name="dav">    0.68    0.68</time>
   <time name="total">    0.73    0.73</time>
   <energy>
    <i name="e_fr_energy">   -175.10939172 </i>
    <i name="e_wo_entrp">   -174.98528133 </i>
    <i name="e_0_energy">   -175.04733652 </i>
   </energy>
  </scstep>
  <scstep>
   <time name="dav">    0.53    0.53</time>
   <time name="total">    0.55    0.55</time>
   <energy>
    <i name="alphaZ">    543.85193267 </i>
    <i name="ewald">  -5257.89985893 </i>
    <i name="hartreedc">   -653.76057569 </i>
    <i name="XCdc">   -769.69337932 </i>
    <i name="pawpsdc">   7560.06295881 </i>
    <i name="pawaedc">  -6756.55331171 </i>
    <i name="eentropy">     -0.12408488 </i>
    <i name="bandstr">    471.52270731 </i>
    <i name="atom">   4687.48422623 </i>
    <i name="e_fr_energy">   -175.10938550 </i>
    <i name="e_wo_entrp">   -174.98530063 </i>
    <i name="e_0_energy">   -175.04734306 </i>
   </energy>
  </scstep>
  <structure>
   <crystal>
    <varray name="basis" >
     <v>       6.87084539       0.00862799       0.92930636 </v>
     <v>      -0.51320891       9.23564555       0.03898064 </v>
     <v>       0.70627264       0.01940058       4.24267792 </v>
    </varray>
    <i name="volume">    263.16912616 </i>
    <varray name="rec_basis" >
     <v>       0.14888948       0.00837830      -0.02482373 </v>
     <v>      -0.00007059       0.10827425      -0.00048336 </v>
     <v>      -0.03261176      -0.00282996       0.24114197 </v>
    </varray>
   </crystal>
   <varray name="positions" >
    <v>       0.13821302       0.64530007       0.46256985 </v>
    <v>       0.20851180       0.97998231       0.42351527 </v>
    <v>       0.52033692       0.48592217       0.26772043 </v>
    <v>       0.64492503       0.04090503       0.20559364 </v>
    <v>       0.78384195       0.71159133       0.13639459 </v>
    <v>       0.97840436       0.97922446       0.03507506 </v>
    <v>       0.99194107       0.51070100       0.03138209 </v>
    <v>       0.80210535       0.27789860       0.12514035 </v>
    <v>       0.38146997       0.23380982       0.33971277 </v>
    <v>       0.46527080       0.80410766       0.29893701 </v>
    <v>       0.43543559       0.00080964       0.80971646 </v>
    <v>       0.75326226       0.51696828       0.64903746 </v>
    <v>       0.05357907       0.35714125       0.50333970 </v>
    <v>       0.17097110       0.21928236       0.94343484 </v>
    <v>       0.18325547       0.77793525       0.93559791 </v>
    <v>       0.81904794       0.84326257       0.61498876 </v>
    <v>       0.59543379       0.25785484       0.72759621 </v>
    <v>       0.32626996       0.45227306       0.86636079 </v>
    <v>       0.49735997       0.68771329       0.77886530 </v>
    <v>       0.90067459       0.11844601       0.57698854 </v>
   </varray>
  </structure>
  <varray name="forces" >
   <v>      -0.08493880      -0.06794790      -0.05577922 </v>
   <v>      -0.01230109       0.04150645      -0.07688828 </v>
   <v>      -0.29090785       0.00421749       0.00225303 </v>
   <v>      -0.02068277       0.24461795       0.01572107 </v>
   <v>       0.14834056      -0.30533274      -0.07024452 </v>
   <v>      -0.04433011       0.01637512       0.06374610 </v>
   <v>       0.43807778      -0.18767417      -0.04592997 </v>
   <v>      -0.03324488       0.21502270       0.04074498 </v>
   <v>       0.02559474      -0.00184663      -0.03401869 </v>
   <v>       0.28917929       0.10381389      -0.12102131 </v>
   <v>       0.06170451       0.02575744       0.01972276 </v>
   <v>      -0.06722065       0.18263249       0.05677231 </v>
   <v>      -0.31436982      -0.14164652      -0.03301030 </v>
   <v>      -0.03624928       0.14590381      -0.01144023 </v>
   <v>      -0.00673892       0.05208963       0.05081582 </v>
   <v>      -0.21214216      -0.00967249       0.09570713 </v>
   <v>       0.05276601       0.04845582       0.05418005 </v>
   <v>       0.14557054      -0.43435797      -0.00756655 </v>
   <v>      -0.03357750       0.01144129       0.03740654 </v>
   <v>      -0.00452960       0.05664435       0.01882926 </v>
  </varray>
  <varray name="stress" >
   <v>     -39.96937938       5.03608436       4.83284423 </v>
   <v>       5.03608448     -36.55417137      -0.10230610 </v>
   <v>       4.83284421      -0.10230595     -42.98840579 </v>
  </varray>
  <energy>
   <i name="e_fr_energy">   -175.10938550 </i>
   <i name="e_wo_entrp">   -175.04734306 </i>
   <i name="e_0_energy">     -0.12408488 </i>
  </energy>
  <time name="totalsc">   13.97   13.98</time>
 </calculation>
 <calculation>
  <scstep>
   <time name="dav">    0.52    0.52</time>
   <time name="total">    0.57    0.57</time>
   <energy>
    <i name="alphaZ">    551.09649546 </i>
    <i name="ewald">  -5277.70401143 </i>
    <i name="hartreedc">   -659.52593717 </i>
    <i name="XCdc">   -768.88350779 </i>
    <i name="pawpsdc">   7559.80619587 </i>
    <i name="pawaedc">  -6756.29537258 </i>
    <i name="eentropy">     -0.11177095 </i>
    <i name="bandstr">    488.81621393 </i>
    <i name="atom">   4687.48422623 </i>
    <i name="e_fr_energy">   -175.31746844 </i>
    <i name="e_wo_entrp">   -175.20569748 </i>
    <i name="e_0_energy">   -175.26158296 </i>
   </energy>
  </scstep>
  <scstep>
   <time name="dav">    0.92    0.92</time>
   <time name="total">    0.97    0.97</time>
   <energy>
    <i name="e_fr_energy">   -178.77849350 </i>
    <i name="e_wo_entrp">   -178.63298669 </i>
    <i name="e_0_energy">   -178.70574009 </i>
   </energy>
  </scstep>
  <scstep>
   <time name="dav">    0.92    0.92</time>
   <time name="total">    0.97    0.97</time>
   <energy>
    <i name="e_fr_energy">   -175.17150365 </i>
    <i name="e_wo_entrp">   -175.05528072 </i>
    <i name="e_0_energy">   -175.11339219 </i>
   </energy>
  </scstep>
  <scstep>
   <time name="dav">    0.90    0.90</time>
   <time name="total">    0.94    0.94</time>
   <energy>
    <i name="e_fr_energy">   -175.31533038 </i>
    <i name="e_wo_entrp">   -175.19504786 </i>
    <i name="e_0_energy">   -175.25518912 </i>
   </energy>
  </scstep>
  <scstep>
   <time name="dav">    0.83    0.83</time>
   <time name="total">    0.88    0.88</time>
   <energy>
    <i name="e_fr_energy">   -175.25008183 </i>
    <i name="e_wo_entrp">   -175.13272469 </i>
    <i name="e_0_energy">   -175.19140326 </i>
   </energy>
  </scstep>
  <scstep>
   <time name="dav">    0.90    0.90</time>
   <time name="total">    0.95    0.95</time>
   <energy>
    <i name="e_fr_energy">   -175.24315543 </i>
    <i name="e_wo_entrp">   -175.12558374 </i>
    <i name="e_0_energy">   -175.18436959 </i>
   </energy>
  </scstep>
  <scstep>
   <time name="dav">    0.90    0.91</time>
   <time name="total">    0.95    0.95</time>
   <energy>
    <i name="e_fr_energy">   -175.23190165 </i>
    <i name="e_wo_entrp">   -175.11245705 </i>
    <i name="e_0_energy">   -175.17217935 </i>
   </energy>
  </scstep>
  <scstep>
   <time name="dav">    0.92    0.92</time>
   <time name="total">    0.96    0.97</time>
   <energy>
    <i name="e_fr_energy">   -175.22714134 </i>
    <i name="e_wo_entrp">   -175.10836928 </i>
    <i name="e_0_energy">   -175.16775531 </i>
   </energy>
  </scstep>
  <scstep>
   <time name="dav">    0.89    0.89</time>
   <time name="total">    0.94    0.94</time>
   <energy>
    <i name="e_fr_energy">   -175.22751306 </i>
    <i name="e_wo_entrp">   -175.10879782 </i>
    <i name="e_0_energy">   -175.16815544 </i>
   </energy>
  </scstep>
  <scstep>
   <time name="dav">    0.88    0.89</time>
   <time name="total">    0.93    0.93</time>
   <energy>
    <i name="e_fr_energy">   -175.22616964 </i>
    <i name="e_wo_entrp">   -175.10728876 </i>
    <i name="e_0_energy">   -175.16672920 </i>
   </energy>
  </scstep>
  <scstep>
   <time name="dav">    0.91    0.91</time>
   <time name="total">    0.95    0.96</time>
   <energy>
    <i name="e_fr_energy">   -175.22639561 </i>
    <i name="e_wo_entrp">   -175.10760406 </i>
    <i name="e_0_energy">   -175.16699983 </i>
   </energy>
  </scstep>
  <scstep>
   <time name="dav">    0.87    0.87</time>
   <time name="total">    0.91    0.91</time>
   <energy>
    <i name="e_fr_energy">   -175.22611041 </i>
    <i name="e_wo_entrp">   -175.10731242 </i>
    <i name="e_0_energy">   -175.16671142 </i>
   </energy>
  </scstep>
  <scstep>
   <time name="dav">    0.80    0.80</time>
   <time name="total">    0.84    0.84</time>
   <energy>
    <i name="e_fr_energy">   -175.22609206 </i>
    <i name="e_wo_entrp">   -175.10718333 </i>
    <i name="e_0_energy">   -175.16663769 </i>
   </energy>
  </scstep>
  <scstep>
   <time name="dav">    0.64    0.64</time>
   <time name="total">    0.66    0.66</time>
   <energy>
    <i name="alphaZ">    551.09649546 </i>
    <i name="ewald">  -5277.70401143 </i>
    <i name="hartreedc">   -651.76262360 </i>
    <i name="XCdc">   -769.06880155 </i>
    <i name="pawpsdc">   7677.83602376 </i>
    <i name="pawaedc">  -6875.22112459 </i>
    <i name="eentropy">     -0.11889227 </i>
    <i name="bandstr">    482.23261560 </i>
    <i name="atom">   4687.48422623 </i>
    <i name="e_fr_energy">   -175.22609240 </i>
    <i name="e_wo_entrp">   -175.10720013 </i>
    <i name="e_0_energy">   -175.16664626 </i>
   </energy>
  </scstep>
  <structure>
   <crystal>
    <varray name="basis" >
     <v>       6.84504612       0.03099380       0.94996610 </v>
     <v>      -0.48072617       9.20174121       0.03652406 </v>
     <v>       0.71919345       0.02148885       4.22230823 </v>
    </varray>
    <i name="volume">    259.70957728 </i>
    <varray name="rec_basis" >
     <v>       0.14959711       0.00791670      -0.02552144 </v>
     <v>      -0.00042529       0.10865477      -0.00048054 </v>
     <v>      -0.03365378      -0.00272105       0.24258344 </v>
    </varray>
   </crystal>
   <varray name="positions" >
    <v>       0.13694728       0.64438842       0.46278422 </v>
    <v>       0.20716950       0.98081830       0.42347700 </v>
    <v>       0.51607463       0.48520769       0.26907435 </v>
    <v>       0.64659429       0.04419822       0.20500541 </v>
    <v>       0.78729524       0.71002587       0.13434990 </v>
    <v>       0.97756407       0.97901654       0.03573780 </v>
    <v>       0.99646839       0.50948452       0.02912337 </v>
    <v>       0.80133377       0.27820474       0.12593375 </v>
    <v>       0.38134607       0.23419475       0.33961364 </v>
    <v>       0.46753801       0.80398774       0.29742893 </v>
    <v>       0.43626361       0.00051459       0.80955106 </v>
    <v>       0.75386634       0.51746989       0.64909455 </v>
    <v>       0.05138791       0.35681457       0.50440091 </v>
    <v>       0.17152586       0.22159600       0.94279171 </v>
    <v>       0.18240385       0.77764830       0.93604844 </v>
    <v>       0.81726990       0.84348647       0.61663472 </v>
    <v>       0.59516406       0.25874594       0.72807543 </v>
    <v>       0.32671556       0.44911221       0.86639926 </v>
    <v>       0.49618035       0.68778328       0.77934383 </v>
    <v>       0.90120131       0.11843095       0.57709871 </v>
   </varray>
  </structure>
  <varray name="forces" >
   <v>      -0.00050329       0.01381269      -0.08633228 </v>
   <v>       0.07303914      -0.04118348      -0.09242828 </v>
   <v>      -0.10471038       0.10905875      -0.00751294 </v>
   <v>      -0.10846703      -0.01937005       0.02715210 </v>
   <v>      -0.04517365      -0.29343894      -0.02840887 </v>
   <v>       0.00780647       0.05662556       0.07385827 </v>
   <v>       0.24622350      -0.07937817       0.00298066 </v>
   <v>      -0.00180500       0.35065961       0.03283886 </v>
   <v>       0.01238360      -0.04785848      -0.05002198 </v>
   <v>       0.24830721       0.14251847      -0.12397650 </v>
   <v>       0.06410796       0.07176333       0.02111032 </v>
   <v>      -0.14486069       0.22435848       0.08001983 </v>
   <v>      -0.23551092      -0.16095726      -0.08227428 </v>
   <v>      -0.11445694      -0.21192165       0.01639809 </v>
   <v>       0.00633120       0.11775635       0.05530084 </v>
   <v>      -0.15759686      -0.03846372       0.06711167 </v>
   <v>       0.11690820      -0.01234915       0.06583055 </v>
   <v>       0.18710853      -0.23524770      -0.03072659 </v>
   <v>       0.02270705      -0.00931712       0.04828558 </v>
   <v>      -0.07183811       0.06293250       0.01079493 </v>
  </varray>
  <varray name="stress" >
   <v>     -12.20782385       2.81707032       1.55753898 </v>
   <v>       2.81707039      -8.65775258      -0.05680655 </v>
   <v>       1.55753892      -0.05680664     -15.17413346 </v>
  </varray>
  <energy>
   <i name="e_fr_energy">   -175.22609240 </i>
   <i name="e_wo_entrp">   -175.16664626 </i>
   <i name="e_0_energy">     -0.11889227 </i>
  </energy>
  <time name="totalsc">   13.61   13.63</time>
 </calculation>
 <calculation>
  <scstep>
   <time name="dav">    0.53    0.53</time>
   <time name="total">    0.57    0.57</time>
   <energy>
    <i name="alphaZ">    554.01439661 </i>
    <i name="ewald">  -5285.31264908 </i>
    <i name="hartreedc">   -654.28453136 </i>
    <i name="XCdc">   -768.74769254 </i>
    <i name="pawpsdc">   7678.01250678 </i>
    <i name="pawaedc">  -6875.39561802 </i>
    <i name="eentropy">     -0.11498931 </i>
    <i name="bandstr">    489.09067588 </i>
    <i name="atom">   4687.48422623 </i>
    <i name="e_fr_energy">   -175.25367482 </i>
    <i name="e_wo_entrp">   -175.13868551 </i>
    <i name="e_0_energy">   -175.19618016 </i>
   </energy>
  </scstep>
  <scstep>
   <time name="dav">    0.91    0.91</time>
   <time name="total">    0.96    0.96</time>
   <energy>
    <i name="e_fr_energy">   -175.80033744 </i>
    <i name="e_wo_entrp">   -175.67844006 </i>
    <i name="e_0_energy">   -175.73938875 </i>
   </energy>
  </scstep>
  <scstep>
   <time name="dav">    0.93    0.93</time>
   <time name="total">    0.98    0.98</time>
   <energy>
    <i name="e_fr_energy">   -175.23613706 </i>
    <i name="e_wo_entrp">   -175.11989885 </i>
    <i name="e_0_energy">   -175.17801796 </i>
   </energy>
  </scstep>
  <scstep>
   <time name="dav">    0.81    0.81</time>
   <time name="total">    0.85    0.85</time>
   <energy>
    <i name="e_fr_energy">   -175.24990963 </i>
    <i name="e_wo_entrp">   -175.13270604 </i>
    <i name="e_0_energy">   -175.19130783 </i>
   </energy>
  </scstep>
  <scstep>
   <time name="dav">    0.81    0.81</time>
   <time name="total">    0.85    0.85</time>
   <energy>
    <i name="e_fr_energy">   -175.24534979 </i>
    <i name="e_wo_entrp">   -175.12870070 </i>
    <i name="e_0_energy">   -175.18702524 </i>
   </energy>
  </scstep>
  <scstep>
   <time name="dav">    0.87    0.87</time>
   <time name="total">    0.92    0.92</time>
   <energy>
    <i name="e_fr_energy">   -175.24221023 </i>
    <i name="e_wo_entrp">   -175.12543354 </i>
    <i name="e_0_energy">   -175.18382189 </i>
   </energy>
  </scstep>
  <scstep>
   <time name="dav">    0.91    0.91</time>
   <time name="total">    0.96    0.96</time>
   <energy>
    <i name="e_fr_energy">   -175.24138811 </i>
    <i name="e_wo_entrp">   -175.12426504 </i>
    <i name="e_0_energy">   -175.18282657 </i>
   </energy>
  </scstep>
  <scstep>
   <time name="dav">    0.91    0.91</time>
   <time name="total">    0.96    0.96</time>
   <energy>
    <i name="e_fr_energy">   -175.24053389 </i>
    <i name="e_wo_entrp">   -175.12354528 </i>
    <i name="e_0_energy">   -175.18203958 </i>
   </energy>
  </scstep>
  <scstep>
   <time name="dav">    0.91    0.91</time>
   <time name="total">    0.95    0.95</time>
   <energy>
    <i name="e_fr_energy">   -175.24063632 </i>
    <i name="e_wo_entrp">   -175.12353998 </i>
    <i name="e_0_energy">   -175.18208815 </i>
   </energy>
  </scstep>
  <scstep>
   <time name="dav">    0.89    0.89</time>
   <time name="total">    0.94    0.94</time>
   <energy>
    <i name="e_fr_energy">   -175.24047986 </i>
    <i name="e_wo_entrp">   -175.12336473 </i>
    <i name="e_0_energy">   -175.18192230 </i>
   </energy>
  </scstep>
  <scstep>
   <time name="dav">    0.90    0.90</time>
   <time name="total">    0.94    0.94</time>
   <energy>
    <i name="e_fr_energy">   -175.24044229 </i>
    <i name="e_wo_entrp">   -175.12344648 </i>
    <i name="e_0_energy">   -175.18194439 </i>
   </energy>
  </scstep>
  <scstep>
   <time name="dav">    0.61    0.62</time>
   <time name="total">    0.63    0.64</time>
   <energy>
    <i name="alphaZ">    554.01439661 </i>
    <i name="ewald">  -5285.31264908 </i>
    <i name="hartreedc">   -651.31387031 </i>
    <i name="XCdc">   -768.81625443 </i>
    <i name="pawpsdc">   7727.57124742 </i>
    <i name="pawaedc">  -6925.30564125 </i>
    <i name="eentropy">     -0.11702312 </i>
    <i name="bandstr">    486.55512582 </i>
    <i name="atom">   4687.48422623 </i>
    <i name="e_fr_energy">   -175.24044212 </i>
    <i name="e_wo_entrp">   -175.12341900 </i>
    <i name="e_0_energy">   -175.18193056 </i>
   </energy>
  </scstep>
  <structure>
   <crystal>
    <varray name="basis" >
     <v>       6.83481034       0.03986737       0.95816279 </v>
     <v>      -0.46783875       9.18828978       0.03554942 </v>
     <v>       0.72431974       0.02231736       4.21422663 </v>
    </varray>
    <i name="volume">    258.34173038 </i>
    <varray name="rec_basis" >
     <v>       0.14988187       0.00773134      -0.02580187 </v>
     <v>      -0.00056757       0.10880713      -0.00047866 </v>
     <v>      -0.03407293      -0.00267568       0.24316191 </v>
    </varray>
   </crystal>
   <varray name="positions" >
    <v>       0.13644446       0.64402659       0.46287207 </v>
    <v>       0.20663320       0.98115250       0.42346536 </v>
    <v>       0.51437646       0.48492716       0.26962380 </v>
    <v>       0.64725384       0.04550805       0.20476901 </v>
    <v>       0.78867598       0.70939934       0.13352534 </v>
    <v>       0.97722903       0.97893450       0.03600396 </v>
    <v>       0.99827661       0.50899594       0.02821118 </v>
    <v>       0.80102501       0.27832733       0.12625220 </v>
    <v>       0.38129610       0.23434816       0.33957463 </v>
    <v>       0.46844301       0.80393793       0.29682208 </v>
    <v>       0.43659422       0.00039631       0.80948299 </v>
    <v>       0.75410603       0.51766905       0.64911625 </v>
    <v>       0.05051448       0.35668650       0.50482906 </v>
    <v>       0.17174325       0.22251685       0.94253536 </v>
    <v>       0.18206464       0.77753482       0.93622994 </v>
    <v>       0.81655947       0.84357719       0.61729551 </v>
    <v>       0.59505448       0.25910101       0.72826778 </v>
    <v>       0.32689889       0.44785309       0.86641157 </v>
    <v>       0.49570977       0.68781224       0.77953748 </v>
    <v>       0.90141109       0.11842444       0.57714143 </v>
   </varray>
  </structure>
  <varray name="forces" >
   <v>       0.03544075       0.04739341      -0.10043368 </v>
   <v>       0.11220817      -0.08231253      -0.09866578 </v>
   <v>      -0.02161947       0.15893319      -0.01219734 </v>
   <v>      -0.14477375      -0.14048066       0.03182231 </v>
   <v>      -0.13008716      -0.28650724      -0.00913018 </v>
   <v>       0.02473750       0.07081012       0.07822887 </v>
   <v>       0.15421590      -0.03018062       0.02581418 </v>
   <v>       0.00901368       0.41332459       0.03126658 </v>
   <v>       0.01000583      -0.06885359      -0.05842679 </v>
   <v>       0.23663355       0.16495272      -0.12471609 </v>
   <v>       0.06811795       0.09220828       0.02157720 </v>
   <v>      -0.17353475       0.23324985       0.08814591 </v>
   <v>      -0.20089361      -0.16294598      -0.10247615 </v>
   <v>      -0.15117385      -0.38135136       0.02948150 </v>
   <v>       0.00693368       0.15305465       0.05774704 </v>
   <v>      -0.13552834      -0.04665828       0.05426475 </v>
   <v>       0.14788049      -0.04189738       0.07010727 </v>
   <v>       0.20839966      -0.13868525      -0.04126692 </v>
   <v>       0.04716771      -0.02160522       0.05208073 </v>
   <v>      -0.10314395       0.06755129       0.00677659 </v>
  </varray>
  <varray name="stress" >
   <v>      -2.97380167       1.82748854       0.14984593 </v>
   <v>       1.82748828       0.59053841      -0.02416945 </v>
   <v>       0.14984602      -0.02416948      -5.96792156 </v>
  </varray>
  <energy>
   <i name="e_fr_energy">   -175.24044212 </i>
   <i name="e_wo_entrp">   -175.18193056 </i>
   <i name="e_0_energy">     -0.11702312 </i>
  </energy>
  <time name="totalsc">   11.63   11.64</time>
 </calculation>
 <calculation>
  <scstep>
   <time name="dav">    0.54    0.54</time>
   <time name="total">    0.58    0.59</time>
   <energy>
    <i name="alphaZ">    554.78429254 </i>
    <i name="ewald">  -5287.28548476 </i>
    <i name="hartreedc">   -651.99417931 </i>
    <i name="XCdc">   -768.73229331 </i>
    <i name="pawpsdc">   7727.67531113 </i>
    <i name="pawaedc">  -6925.40895511 </i>
    <i name="eentropy">     -0.11615536 </i>
    <i name="bandstr">    488.35133517 </i>
    <i name="atom">   4687.48422623 </i>
    <i name="e_fr_energy">   -175.24190278 </i>
    <i name="e_wo_entrp">   -175.12574742 </i>
    <i name="e_0_energy">   -175.18382510 </i>
   </energy>
  </scstep>
  <scstep>
   <time name="dav">    0.93    0.93</time>
   <time name="total">    0.98    0.98</time>
   <energy>
    <i name="e_fr_energy">   -175.28153157 </i>
    <i name="e_wo_entrp">   -175.16380287 </i>
    <i name="e_0_energy">   -175.22266722 </i>
   </energy>
  </scstep>
  <scstep>
   <time name="dav">    0.92    0.92</time>
   <time name="total">    0.97    0.97</time>
   <energy>
    <i name="e_fr_energy">   -175.24084119 </i>
    <i name="e_wo_entrp">   -175.12436604 </i>
    <i name="e_0_energy">   -175.18260361 </i>
   </energy>
  </scstep>
  <scstep>
   <time name="dav">    0.80    0.80</time>
   <time name="total">    0.84    0.84</time>
   <energy>
    <i name="e_fr_energy">   -175.24157939 </i>
    <i name="e_wo_entrp">   -175.12501157 </i>
    <i name="e_0_energy">   -175.18329548 </i>
   </energy>
  </scstep>
  <scstep>
   <time name="dav">    0.83    0.83</time>
   <time name="total">    0.88    0.88</time>
   <energy>
    <i name="e_fr_energy">   -175.24140283 </i>
    <i name="e_wo_entrp">   -175.12489244 </i>
    <i name="e_0_energy">   -175.18314764 </i>
   </energy>
  </scstep>
  <scstep>
   <time name="dav">    0.84    0.84</time>
   <time name="total">    0.89    0.89</time>
   <energy>
    <i name="e_fr_energy">   -175.24108907 </i>
    <i name="e_wo_entrp">   -175.12450442 </i>
    <i name="e_0_energy">   -175.18279674 </i>
   </energy>
  </scstep>
  <scstep>
   <time name="dav">    0.92    0.92</time>
   <time name="total">    0.96    0.96</time>
   <energy>
    <i name="e_fr_energy">   -175.24109263 </i>
    <i name="e_wo_entrp">   -175.12449926 </i>
    <i name="e_0_energy">   -175.18279594 </i>
   </energy>
  </scstep>
  <scstep>
   <time name="dav">    0.90    0.90</time>
   <time name="total">    0.94    0.95</time>
   <energy>
    <i name="e_fr_energy">   -175.24101344 </i>
    <i name="e_wo_entrp">   -175.12441590 </i>
    <i name="e_0_energy">   -175.18271467 </i>
   </energy>
  </scstep>
  <scstep>
   <time name="dav">    0.77    0.77</time>
   <time name="total">    0.82    0.82</time>
   <energy>
    <i name="e_fr_energy">   -175.24101081 </i>
    <i name="e_wo_entrp">   -175.12441462 </i>
    <i name="e_0_energy">   -175.18271272 </i>
   </energy>
  </scstep>
  <scstep>
   <time name="dav">    0.49    0.49</time>
   <time name="total">    0.51    0.51</time>
   <energy>
    <i name="alphaZ">    554.78429254 </i>
    <i name="ewald">  -5287.28548476 </i>
    <i name="hartreedc">   -651.22165148 </i>
    <i name="XCdc">   -768.75020220 </i>
    <i name="pawpsdc">   7740.94371689 </i>
    <i name="pawaedc">  -6938.76581231 </i>
    <i name="eentropy">     -0.11662148 </i>
    <i name="bandstr">    487.68653095 </i>
    <i name="atom">   4687.48422623 </i>
    <i name="e_fr_energy">   -175.24100562 </i>
    <i name="e_wo_entrp">   -175.12438414 </i>
    <i name="e_0_energy">   -175.18269488 </i>
   </energy>
  </scstep>
  <structure>
   <crystal>
    <varray name="basis" >
     <v>       6.83212423       0.04219600       0.96031380 </v>
     <v>      -0.46445678       9.18475980       0.03529365 </v>
     <v>       0.72566500       0.02253478       4.21210582 </v>
    </varray>
    <i name="volume">    257.98321943 </i>
    <varray name="rec_basis" >
     <v>       0.14995698       0.00768249      -0.02587581 </v>
     <v>      -0.00060505       0.10884725      -0.00047809 </v>
     <v>      -0.03418347      -0.00266356       0.24331435 </v>
    </varray>
   </crystal>
   <varray name="positions" >
    <v>       0.13631244       0.64393162       0.46289542 </v>
    <v>       0.20649206       0.98124047       0.42346268 </v>
    <v>       0.51393006       0.48485385       0.26976928 </v>
    <v>       0.64742664       0.04585213       0.20470666 </v>
    <v>       0.78903945       0.70923435       0.13330755 </v>
    <v>       0.97714092       0.97891302       0.03607415 </v>
    <v>       0.99875240       0.50886710       0.02797011 </v>
    <v>       0.80094371       0.27835961       0.12633616 </v>
    <v>       0.38128290       0.23438850       0.33956443 </v>
    <v>       0.46868108       0.80392463       0.29666193 </v>
    <v>       0.43668120       0.00036514       0.80946487 </v>
    <v>       0.75416893       0.51772133       0.64912184 </v>
    <v>       0.05028483       0.35665306       0.50494217 </v>
    <v>       0.17180001       0.22275881       0.94246797 </v>
    <v>       0.18197548       0.77750507       0.93627785 </v>
    <v>       0.81637251       0.84360120       0.61746974 </v>
    <v>       0.59502546       0.25919435       0.72831848 </v>
    <v>       0.32694769       0.44752213       0.86641449 </v>
    <v>       0.49558601       0.68781996       0.77958869 </v>
    <v>       0.90146623       0.11842267       0.57715254 </v>
   </varray>
  </structure>
  <varray name="forces" >
   <v>       0.04434491       0.05654259      -0.10408098 </v>
   <v>       0.12378219      -0.09027055      -0.10045064 </v>
   <v>       0.00112893       0.16949440      -0.01323373 </v>
   <v>      -0.15889559      -0.16659572       0.03409082 </v>
   <v>      -0.14937602      -0.28922636      -0.00455242 </v>
   <v>       0.03401086       0.07560157       0.07840846 </v>
   <v>       0.12878113      -0.01597313       0.03201278 </v>
   <v>       0.01001241       0.43180463       0.03108258 </v>
   <v>       0.00875742      -0.07373083      -0.06074307 </v>
   <v>       0.23094376       0.16925749      -0.12436657 </v>
   <v>       0.06657653       0.09818662       0.02195727 </v>
   <v>      -0.18358318       0.23638717       0.09075746 </v>
   <v>      -0.19035009      -0.16453168      -0.10813043 </v>
   <v>      -0.15783329      -0.42679652       0.03257965 </v>
   <v>       0.01012365       0.15931018       0.05782923 </v>
   <v>      -0.13073585      -0.05065986       0.05094215 </v>
   <v>       0.15528651      -0.04872812       0.07133165 </v>
   <v>       0.21579231      -0.11110752      -0.04441874 </v>
   <v>       0.05287746      -0.02686190       0.05324462 </v>
   <v>      -0.11164405       0.06789753       0.00573991 </v>
  </varray>
  <varray name="stress" >
   <v>       0.25389233       1.56658374      -0.20648481 </v>
   <v>       1.56658379       3.89024031      -0.00728474 </v>
   <v>      -0.20648491      -0.00728446      -2.74556221 </v>
  </varray>
  <energy>
   <i name="e_fr_energy">   -175.24100562 </i>
   <i name="e_wo_entrp">   -175.18269488 </i>
   <i name="e_0_energy">     -0.11662148 </i>
  </energy>
  <time name="totalsc">    9.49    9.50</time>
 </calculation>
 <calculation>
  <scstep>
   <time name="dav">    0.54    0.54</time>
   <time name="total">    0.58    0.58</time>
   <energy>
    <i name="alphaZ">    555.32037461 </i>
    <i name="ewald">  -5289.19039497 </i>
    <i name="hartreedc">   -651.34520547 </i>
    <i name="XCdc">   -768.69222133 </i>
    <i name="pawpsdc">   7741.09896106 </i>
    <i name="pawaedc">  -6938.92343681 </i>
    <i name="eentropy">     -0.11639556 </i>
    <i name="bandstr">    489.09785734 </i>
    <i name="atom">   4687.48422623 </i>
    <i name="e_fr_energy">   -175.26623490 </i>
    <i name="e_wo_entrp">   -175.14983934 </i>
    <i name="e_0_energy">   -175.20803712 </i>
   </energy>
  </scstep>
  <scstep>
   <time name="dav">    0.92    0.92</time>
   <time name="total">    0.96    0.96</time>
   <energy>
    <i name="e_fr_energy">   -175.29793208 </i>
    <i name="e_wo_entrp">   -175.18120136 </i>
    <i name="e_0_energy">   -175.23956672 </i>
   </energy>
  </scstep>
  <scstep>
   <time name="dav">    0.91    0.92</time>
   <time name="total">    0.96    0.96</time>
   <energy>
    <i name="e_fr_energy">   -175.26765520 </i>
    <i name="e_wo_entrp">   -175.15145794 </i>
    <i name="e_0_energy">   -175.20955657 </i>
   </energy>
  </scstep>
  <scstep>
   <time name="dav">    0.77    0.77</time>
   <time name="total">    0.82    0.82</time>
   <energy>
    <i name="e_fr_energy">   -175.26770357 </i>
    <i name="e_wo_entrp">   -175.15104770 </i>
    <i name="e_0_energy">   -175.20937563 </i>
   </energy>
  </scstep>
  <scstep>
   <time name="dav">    0.80    0.80</time>
   <time name="total">    0.85    1.97</time>
   <energy>
    <i name="e_fr_energy">   -175.26795722 </i>
    <i name="e_wo_entrp">   -175.15152624 </i>
    <i name="e_0_energy">   -175.20974173 </i>
   </energy>
  </scstep>
  <scstep>
   <time name="dav">    0.81    0.81</time>
   <time name="total">    0.86    0.86</time>
   <energy>
    <i name="e_fr_energy">   -175.26704140 </i>
    <i name="e_wo_entrp">   -175.15066369 </i>
    <i name="e_0_energy">   -175.20885255 </i>
   </energy>
  </scstep>
  <scstep>
   <time name="dav">    0.91    0.91</time>
   <time name="total">    0.95    0.95</time>
   <energy>
    <i name="e_fr_energy">   -175.26711569 </i>
    <i name="e_wo_entrp">   -175.15051253 </i>
    <i name="e_0_energy">   -175.20881411 </i>
   </energy>
  </scstep>
  <scstep>
   <time name="dav">    0.80    0.80</time>
   <time name="total">    0.85    0.85</time>
   <energy>
    <i name="e_fr_energy">   -175.26685243 </i>
    <i name="e_wo_entrp">   -175.15036420 </i>
    <i name="e_0_energy">   -175.20860832 </i>
   </energy>
  </scstep>
  <scstep>
   <time name="dav">    0.90    0.90</time>
   <time name="total">    0.94    4.32</time>
   <energy>
    <i name="e_fr_energy">   -175.26686564 </i>
    <i name="e_wo_entrp">   -175.15039109 </i>
    <i name="e_0_energy">   -175.20862837 </i>
   </energy>
  </scstep>
  <scstep>
   <time name="dav">    0.87    0.87</time>
   <time name="total">    0.92    0.92</time>
   <energy>
    <i name="e_fr_energy">   -175.26686334 </i>
    <i name="e_wo_entrp">   -175.15040311 </i>
    <i name="e_0_energy">   -175.20863322 </i>
   </energy>
  </scstep>
  <scstep>
   <time name="dav">    0.79    0.79</time>
   <time name="total">    0.84    0.84</time>
   <energy>
    <i name="e_fr_energy">   -175.26684530 </i>
    <i name="e_wo_entrp">   -175.15038446 </i>
    <i name="e_0_energy">   -175.20861488 </i>
   </energy>
  </scstep>
  <scstep>
   <time name="dav">    0.40    0.40</time>
   <time name="total">    0.42    0.42</time>
   <energy>
    <i name="alphaZ">    555.32037461 </i>
    <i name="ewald">  -5289.19039497 </i>
    <i name="hartreedc">   -650.71439184 </i>
    <i name="XCdc">   -768.70685799 </i>
    <i name="pawpsdc">   7748.33600097 </i>
    <i name="pawaedc">  -6946.21428902 </i>
    <i name="eentropy">     -0.11646593 </i>
    <i name="bandstr">    488.53495311 </i>
    <i name="atom">   4687.48422623 </i>
    <i name="e_fr_energy">   -175.26684484 </i>
    <i name="e_wo_entrp">   -175.15037891 </i>
    <i name="e_0_energy">   -175.20861187 </i>
   </energy>
  </scstep>
  <structure>
   <crystal>
    <varray name="basis" >
     <v>       6.83004490       0.04646457       0.96142427 </v>
     <v>      -0.45856319       9.18860929       0.03506720 </v>
     <v>       0.72673777       0.02297661       4.20785388 </v>
    </varray>
    <i name="volume">    257.73417368 </i>
    <varray name="rec_basis" >
     <v>       0.15001317       0.00758553      -0.02595017 </v>
     <v>      -0.00067289       0.10879864      -0.00047787 </v>
     <v>      -0.03426989      -0.00263987       0.24358400 </v>
    </varray>
   </crystal>
   <varray name="positions" >
    <v>       0.13643621       0.64399934       0.46224422 </v>
    <v>       0.20687383       0.98107489       0.42275197 </v>
    <v>       0.51356997       0.48524719       0.26980918 </v>
    <v>       0.64693587       0.04571466       0.20500304 </v>
    <v>       0.78875906       0.70830244       0.13322838 </v>
    <v>       0.97715192       0.97909711       0.03657926 </v>
    <v>       0.99964193       0.50870438       0.02783637 </v>
    <v>       0.80096988       0.27955942       0.12656369 </v>
[...]
       <r>    7.0486    0.0000 </r>
       <r>    7.0944    0.0000 </r>
       <r>    7.2043    0.0000 </r>
       <r>    7.2491    0.0000 </r>
       <r>    7.3251    0.0000 </r>
       <r>    7.3706    0.0000 </r>
       <r>    7.4411    0.0000 </r>
       <r>    7.5097    0.0000 </r>
      </set>
      <set comment="kpoint 8">
       <r>    1.1832    1.0000 </r>
       <r>    1.4777    1.0000 </r>
       <r>    2.2885    1.0000 </r>
       <r>    2.4226    1.0000 </r>
       <r>    2.7877    1.0000 </r>
       <r>    2.8711    1.0000 </r>
       <r>    2.9275    1.0000 </r>
       <r>    2.9542    1.0000 </r>
       <r>    3.0507    1.0000 </r>
       <r>    3.2176    1.0000 </r>
       <r>    3.3386    1.0000 </r>
       <r>    3.4390    1.0000 </r>
       <r>    3.5304    1.0000 </r>
       <r>    3.6075    1.0000 </r>
       <r>    3.6787    1.0000 </r>
       <r>    3.7361    1.0000 </r>
       <r>    3.7859    1.0000 </r>
       <r>    3.9373    1.0000 </r>
       <r>    4.0063    1.0000 </r>
       <r>    4.1207    1.0000 </r>
       <r>    4.2304    1.0000 </r>
       <r>    4.2935    1.0000 </r>
       <r>    4.3506    1.0000 </r>
       <r>    4.4606    1.0000 </r>
       <r>    4.5293    1.0000 </r>
       <r>    4.6250    1.0000 </r>
       <r>    4.6436    1.0000 </r>
       <r>    4.6694    1.0000 </r>
       <r>    4.7793    1.0000 </r>
       <r>    4.9033    1.0000 </r>
       <r>    4.9709    1.0000 </r>
       <r>    4.9906    1.0000 </r>
       <r>    5.0403    1.0000 </r>
       <r>    5.0834    1.0000 </r>
       <r>    5.1251    1.0000 </r>
       <r>    5.2327    1.0000 </r>
       <r>    5.2679    1.0000 </r>
       <r>    5.3278    1.0000 </r>
       <r>    5.3886    1.0000 </r>
       <r>    5.4582    1.0000 </r>
       <r>    5.5493    1.0000 </r>
       <r>    5.5781    1.0000 </r>
       <r>    5.6113    1.0000 </r>
       <r>    5.6374    1.0000 </r>
       <r>    5.7058    1.0000 </r>
       <r>    5.7918    1.0000 </r>
       <r>    5.8718    1.0000 </r>
       <r>    5.9482    1.0000 </r>
       <r>    6.0088    1.0000 </r>
       <r>    6.0379    1.0000 </r>
       <r>    6.0955    1.0000 </r>
       <r>    6.1087    0.9999 </r>
       <r>    6.2010    0.9948 </r>
       <r>    6.2412    0.9770 </r>
       <r>    6.3330    0.7571 </r>
       <r>    6.3847    0.4860 </r>
       <r>    6.6891    0.0000 </r>
       <r>    6.8176    0.0000 </r>
       <r>    6.8906    0.0000 </r>
       <r>    6.9278    0.0000 </r>
       <r>    7.0304    0.0000 </r>
       <r>    7.1171    0.0000 </r>
       <r>    7.2007    0.0000 </r>
       <r>    7.2819    0.0000 </r>
       <r>    7.3581    0.0000 </r>
       <r>    7.4024    0.0000 </r>
       <r>    7.4522    0.0000 </r>
       <r>    7.5251    0.0000 </r>
      </set>
     </set>
    </set>
   </array>
  </eigenvalues>
  <separator name="orbital magnetization" >
   <v name="MAGDIPOLOUT">      0.00000000      0.00000000      0.00000000</v>
  </separator>
  <dos>
   <i name="efermi">      6.38226676 </i>
   <total>
    <array>
     <dimension dim="1">gridpoints</dimension>
     <dimension dim="2">spin</dimension>
     <field>energy</field>
     <field>total</field>
     <field>integrated</field>
     <set>
      <set comment="spin 1">
       <r>    -1.5449     0.0000     0.0000 </r>
       <r>    -1.5110     0.0000     0.0000 </r>
       <r>    -1.4771     0.0000     0.0000 </r>
       <r>    -1.4432     0.0000     0.0000 </r>
       <r>    -1.4093     0.0000     0.0000 </r>
       <r>    -1.3753     0.0000     0.0000 </r>
       <r>    -1.3414     0.0000     0.0000 </r>
       <r>    -1.3075     0.0000     0.0000 </r>
       <r>    -1.2736     0.0000     0.0000 </r>
       <r>    -1.2397     0.0000     0.0000 </r>
       <r>    -1.2058     0.0000     0.0000 </r>
       <r>    -1.1719     0.0000     0.0000 </r>
       <r>    -1.1379     0.0000     0.0000 </r>
       <r>    -1.1040     0.0000     0.0000 </r>
       <r>    -1.0701     0.0000     0.0000 </r>
       <r>    -1.0362     0.0000     0.0000 </r>
       <r>    -1.0023     0.0000     0.0000 </r>
       <r>    -0.9684     0.0000     0.0000 </r>
       <r>    -0.9345     0.0000     0.0000 </r>
       <r>    -0.9005     0.0000     0.0000 </r>
       <r>    -0.8666     0.0000     0.0000 </r>
       <r>    -0.8327     0.0001     0.0000 </r>
       <r>    -0.7988     0.0007     0.0000 </r>
       <r>    -0.7649     0.0038     0.0002 </r>
       <r>    -0.7310     0.0163     0.0007 </r>
       <r>    -0.6971     0.0563     0.0026 </r>
       <r>    -0.6631     0.1550     0.0079 </r>
       <r>    -0.6292     0.3405     0.0194 </r>
       <r>    -0.5953     0.5968     0.0397 </r>
       <r>    -0.5614     0.8346     0.0680 </r>
       <r>    -0.5275     0.9314     0.0996 </r>
       <r>    -0.4936     0.8296     0.1277 </r>
       <r>    -0.4597     0.5908     0.1477 </r>
       <r>    -0.4257     0.3411     0.1593 </r>
       <r>    -0.3918     0.1786     0.1654 </r>
       <r>    -0.3579     0.1410     0.1701 </r>
       <r>    -0.3240     0.2332     0.1780 </r>
       <r>    -0.2901     0.4405     0.1930 </r>
       <r>    -0.2562     0.7012     0.2168 </r>
       <r>    -0.2223     0.8977     0.2472 </r>
       <r>    -0.1884     0.9237     0.2785 </r>
       <r>    -0.1544     0.7809     0.3050 </r>
       <r>    -0.1205     0.5932     0.3251 </r>
       <r>    -0.0866     0.5123     0.3425 </r>
       <r>    -0.0527     0.6018     0.3629 </r>
       <r>    -0.0188     0.7913     0.3898 </r>
       <r>     0.0151     0.9272     0.4212 </r>
       <r>     0.0490     0.8906     0.4514 </r>
       <r>     0.0830     0.6867     0.4747 </r>
       <r>     0.1169     0.4231     0.4890 </r>
       <r>     0.1508     0.2081     0.4961 </r>
       <r>     0.1847     0.0817     0.4989 </r>
       <r>     0.2186     0.0259     0.4997 </r>
       <r>     0.2525     0.0082     0.5000 </r>
       <r>     0.2864     0.0104     0.5004 </r>
       <r>     0.3204     0.0361     0.5016 </r>
       <r>     0.3543     0.1143     0.5055 </r>
       <r>     0.3882     0.2948     0.5155 </r>
       <r>     0.4221     0.6219     0.5366 </r>
       <r>     0.4560     1.0853     0.5734 </r>
       <r>     0.4899     1.5986     0.6276 </r>
       <r>     0.5238     2.0562     0.6973 </r>
       <r>     0.5578     2.4266     0.7796 </r>
       <r>     0.5917     2.7542     0.8730 </r>
       <r>     0.6256     3.0322     0.9759 </r>
       <r>     0.6595     3.1117     1.0814 </r>
       <r>     0.6934     2.8203     1.1770 </r>
       <r>     0.7273     2.1840     1.2511 </r>
       <r>     0.7612     1.4798     1.3013 </r>
       <r>     0.7952     1.0627     1.3373 </r>
       <r>     0.8291     1.1662     1.3769 </r>
       <r>     0.8630     1.8111     1.4383 </r>
       <r>     0.8969     2.8033     1.5334 </r>
       <r>     0.9308     3.8164     1.6628 </r>
       <r>     0.9647     4.5691     1.8178 </r>
       <r>     0.9986     4.9787     1.9866 </r>
       <r>     1.0326     5.1567     2.1615 </r>
       <r>     1.0665     5.2799     2.3406 </r>
       <r>     1.1004     5.4510     2.5254 </r>
       <r>     1.1343     5.6009     2.7154 </r>
       <r>     1.1682     5.4918     2.9016 </r>
       <r>     1.2021     4.9006     3.0678 </r>
       <r>     1.2360     3.8766     3.1993 </r>
       <r>     1.2700     2.7721     3.2933 </r>
       <r>     1.3039     1.9624     3.3599 </r>
       <r>     1.3378     1.5747     3.4133 </r>
       <r>     1.3717     1.5166     3.4647 </r>
       <r>     1.4056     1.6667     3.5212 </r>
       <r>     1.4395     1.9333     3.5868 </r>
       <r>     1.4734     2.1848     3.6609 </r>
       <r>     1.5074     2.2663     3.7378 </r>
       <r>     1.5413     2.1214     3.8097 </r>
       <r>     1.5752     1.8203     3.8714 </r>
       <r>     1.6091     1.4574     3.9209 </r>
       <r>     1.6430     1.0954     3.9580 </r>
       <r>     1.6769     0.8226     3.9859 </r>
       <r>     1.7108     0.8005     4.0131 </r>
       <r>     1.7448     1.2091     4.0541 </r>
       <r>     1.7787     2.1055     4.1255 </r>
       <r>     1.8126     3.2730     4.2365 </r>
       <r>     1.8465     4.2206     4.3796 </r>
       <r>     1.8804     4.4602     4.5309 </r>
       <r>     1.9143     3.8961     4.6630 </r>
       <r>     1.9482     2.9379     4.7626 </r>
       <r>     1.9822     2.1936     4.8370 </r>
       <r>     2.0161     2.0428     4.9063 </r>
       <r>     2.0500     2.4599     4.9897 </r>
       <r>     2.0839     3.1448     5.0964 </r>
       <r>     2.1178     3.7530     5.2237 </r>
       <r>     2.1517     4.0455     5.3609 </r>
       <r>     2.1856     3.9615     5.4952 </r>
       <r>     2.2196     3.6500     5.6190 </r>
       <r>     2.2535     3.3957     5.7342 </r>
       <r>     2.2874     3.4529     5.8513 </r>
       <r>     2.3213     3.9420     5.9850 </r>
       <r>     2.3552     4.8093     6.1481 </r>
       <r>     2.3891     5.7465     6.3430 </r>
       <r>     2.4230     6.2486     6.5549 </r>
       <r>     2.4570     6.0073     6.7586 </r>
       <r>     2.4909     5.2795     6.9377 </r>
       <r>     2.5248     4.7014     7.0971 </r>
       <r>     2.5587     4.7310     7.2576 </r>
       <r>     2.5926     5.3701     7.4397 </r>
       <r>     2.6265     6.3531     7.6551 </r>
       <r>     2.6604     7.4334     7.9072 </r>
       <r>     2.6944     8.5270     8.1964 </r>
       <r>     2.7283     9.7669     8.5277 </r>
       <r>     2.7622    11.4260     8.9152 </r>
       <r>     2.7961    13.6126     9.3768 </r>
       <r>     2.8300    16.0223     9.9202 </r>
       <r>     2.8639    18.1120    10.5345 </r>
       <r>     2.8978    19.4857    11.1953 </r>
       <r>     2.9318    20.0542    11.8754 </r>
       <r>     2.9657    19.9766    12.5529 </r>
       <r>     2.9996    19.5575    13.2162 </r>
       <r>     3.0335    19.0185    13.8612 </r>
       <r>     3.0674    18.2704    14.4808 </r>
       <r>     3.1013    17.1174    15.0613 </r>
       <r>     3.1352    15.7829    15.5966 </r>
       <r>     3.1692    14.9982    16.1052 </r>
       <r>     3.2031    15.3537    16.6260 </r>
       <r>     3.2370    16.6356    17.1901 </r>
       <r>     3.2709    18.0016    17.8006 </r>
       <r>     3.3048    18.8785    18.4409 </r>
       <r>     3.3387    19.5624    19.1043 </r>
       <r>     3.3726    20.8226    19.8105 </r>
       <r>     3.4066    22.9921    20.5903 </r>
       <r>     3.4405    25.6142    21.4590 </r>
       <r>     3.4744    27.9608    22.4072 </r>
       <r>     3.5083    29.6913    23.4142 </r>
       <r>     3.5422    30.9362    24.4634 </r>
       <r>     3.5761    31.9389    25.5465 </r>
       <r>     3.6100    32.7650    26.6577 </r>
       <r>     3.6440    33.2608    27.7858 </r>
       <r>     3.6779    33.1906    28.9114 </r>
       <r>     3.7118    32.4649    30.0124 </r>
       <r>     3.7457    31.2627    31.0727 </r>
       <r>     3.7796    29.8732    32.0858 </r>
       <r>     3.8135    28.4754    33.0515 </r>
       <r>     3.8474    27.1979    33.9739 </r>
       <r>     3.8814    26.2797    34.8652 </r>
       <r>     3.9153    25.8902    35.7432 </r>
       <r>     3.9492    25.7820    36.6176 </r>
       <r>     3.9831    25.3795    37.4783 </r>
       <r>     4.0170    24.3011    38.3024 </r>
       <r>     4.0509    22.6688    39.0712 </r>
       <r>     4.0848    20.9055    39.7802 </r>
       <r>     4.1187    19.4282    40.4391 </r>
       <r>     4.1527    18.6236    41.0707 </r>
       <r>     4.1866    18.8640    41.7105 </r>
       <r>     4.2205    20.2400    42.3969 </r>
       <r>     4.2544    22.3067    43.1534 </r>
       <r>     4.2883    24.3044    43.9777 </r>
       <r>     4.3222    25.6842    44.8487 </r>
       <r>     4.3561    26.4331    45.7452 </r>
       <r>     4.3901    26.9927    46.6606 </r>
       <r>     4.4240    27.8830    47.6063 </r>
       <r>     4.4579    29.2693    48.5989 </r>
       <r>     4.4918    30.7940    49.6433 </r>
       <r>     4.5257    31.8724    50.7242 </r>
       <r>     4.5596    32.2216    51.8170 </r>
       <r>     4.5935    32.0245    52.9030 </r>
       <r>     4.6275    31.4757    53.9705 </r>
       <r>     4.6614    30.3571    55.0001 </r>
       <r>     4.6953    28.3874    55.9628 </r>
       <r>     4.7292    25.9524    56.8429 </r>
       <r>     4.7631    24.1763    57.6629 </r>
       <r>     4.7970    24.1811    58.4829 </r>
       <r>     4.8309    26.3353    59.3761 </r>
       <r>     4.8649    30.0574    60.3955 </r>
       <r>     4.8988    34.1496    61.5536 </r>
       <r>     4.9327    37.4400    62.8234 </r>
       <r>     4.9666    39.3300    64.1572 </r>
       <r>     5.0005    39.8319    65.5081 </r>
       <r>     5.0344    39.2073    66.8378 </r>
       <r>     5.0683    37.6802    68.1156 </r>
       <r>     5.1023    35.4253    69.3171 </r>
       <r>     5.1362    32.7361    70.4273 </r>
       <r>     5.1701    30.2209    71.4522 </r>
       <r>     5.2040    28.7226    72.4263 </r>
       <r>     5.2379    28.7693    73.4020 </r>
       <r>     5.2718    30.0492    74.4211 </r>
       <r>     5.3057    31.6297    75.4938 </r>
       <r>     5.3397    32.7606    76.6048 </r>
       <r>     5.3736    33.3485    77.7358 </r>
       <r>     5.4075    33.7252    78.8796 </r>
       <r>     5.4414    34.2201    80.0401 </r>
       <r>     5.4753    35.0144    81.2276 </r>
       <r>     5.5092    36.1400    82.4533 </r>
       <r>     5.5431    37.3692    83.7206 </r>
       <r>     5.5771    38.1172    85.0133 </r>
       <r>     5.6110    37.6394    86.2898 </r>
       <r>     5.6449    35.5266    87.4947 </r>
       <r>     5.6788    32.1496    88.5850 </r>
       <r>     5.7127    28.6106    89.5553 </r>
       <r>     5.7466    26.1328    90.4416 </r>
       <r>     5.7805    25.3885    91.3026 </r>
       <r>     5.8145    26.2833    92.1940 </r>
       <r>     5.8484    28.1720    93.1494 </r>
       <r>     5.8823    30.2406    94.1750 </r>
       <r>     5.9162    31.9306    95.2579 </r>
       <r>     5.9501    33.1900    96.3835 </r>
       <r>     5.9840    34.2442    97.5449 </r>
       <r>     6.0179    35.0752    98.7344 </r>
       <r>     6.0519    35.2873    99.9312 </r>
       <r>     6.0858    34.5594   101.1032 </r>
       <r>     6.1197    33.0456   102.2239 </r>
       <r>     6.1536    31.2162   103.2826 </r>
       <r>     6.1875    29.4372   104.2810 </r>
       <r>     6.2214    27.8015   105.2238 </r>
       <r>     6.2553    26.2522   106.1141 </r>
       <r>     6.2893    24.7347   106.9530 </r>
       <r>     6.3232    23.2395   107.7411 </r>
       <r>     6.3571    21.7965   108.4804 </r>
       <r>     6.3910    20.4818   109.1750 </r>
       <r>     6.4249    19.4069   109.8332 </r>
       <r>     6.4588    18.6717   110.4664 </r>
       <r>     6.4927    18.2815   111.0864 </r>
       <r>     6.5267    18.0493   111.6985 </r>
       <r>     6.5606    17.6110   112.2958 </r>
       <r>     6.5945    16.6649   112.8610 </r>
       <r>     6.6284    15.2525   113.3782 </r>
       <r>     6.6623    13.7646   113.8450 </r>
       <r>     6.6962    12.6788   114.2750 </r>
       <r>     6.7301    12.3362   114.6934 </r>
       <r>     6.7641    12.8914   115.1306 </r>
       <r>     6.7980    14.3104   115.6159 </r>
       <r>     6.8319    16.3324   116.1698 </r>
       <r>     6.8658    18.4594   116.7959 </r>
       <r>     6.8997    20.0915   117.4773 </r>
       <r>     6.9336    20.8688   118.1850 </r>
       <r>     6.9675    20.9998   118.8972 </r>
       <r>     7.0015    21.1418   119.6142 </r>
       <r>     7.0354    21.8339   120.3547 </r>
       <r>     7.0693    23.0965   121.1380 </r>
       <r>     7.1032    24.6151   121.9728 </r>
       <r>     7.1371    26.1686   122.8603 </r>
       <r>     7.1710    27.7563   123.8016 </r>
       <r>     7.2049    29.3907   124.7984 </r>
       <r>     7.2389    30.9281   125.8473 </r>
       <r>     7.2728    32.1247   126.9367 </r>
       <r>     7.3067    32.7759   128.0483 </r>
       <r>     7.3406    32.8150   129.1612 </r>
       <r>     7.3745    32.3417   130.2580 </r>
       <r>     7.4084    31.4990   131.3263 </r>
       <r>     7.4423    30.2242   132.3513 </r>
       <r>     7.4763    28.1375   133.3056 </r>
       <r>     7.5102    24.7787   134.1459 </r>
       <r>     7.5441    20.0744   134.8267 </r>
       <r>     7.5780    14.6278   135.3228 </r>
       <r>     7.6119     9.4750   135.6442 </r>
       <r>     7.6458     5.4615   135.8294 </r>
       <r>     7.6797     2.8307   135.9254 </r>
       <r>     7.7137     1.3311   135.9705 </r>
       <r>     7.7476     0.5651   135.9897 </r>
       <r>     7.7815     0.2119   135.9969 </r>
       <r>     7.8154     0.0682   135.9992 </r>
       <r>     7.8493     0.0184   135.9998 </r>
       <r>     7.8832     0.0041   136.0000 </r>
       <r>     7.9171     0.0007   136.0000 </r>
       <r>     7.9511     0.0001   136.0000 </r>
       <r>     7.9850     0.0000   136.0000 </r>
       <r>     8.0189     0.0000   136.0000 </r>
       <r>     8.0528     0.0000   136.0000 </r>
       <r>     8.0867     0.0000   136.0000 </r>
       <r>     8.1206     0.0000   136.0000 </r>
       <r>     8.1545     0.0000   136.0000 </r>
       <r>     8.1885     0.0000   136.0000 </r>
       <r>     8.2224     0.0000   136.0000 </r>
       <r>     8.2563     0.0000   136.0000 </r>
       <r>     8.2902     0.0000   136.0000 </r>
       <r>     8.3241     0.0000   136.0000 </r>
       <r>     8.3580     0.0000   136.0000 </r>
       <r>     8.3919     0.0000   136.0000 </r>
       <r>     8.4258     0.0000   136.0000 </r>
       <r>     8.4598     0.0000   136.0000 </r>
       <r>     8.4937     0.0000   136.0000 </r>
       <r>     8.5276     0.0000   136.0000 </r>
       <r>     8.5615     0.0000   136.0000 </r>
       <r>     8.5954     0.0000   136.0000 </r>
       <r>     8.6293     0.0000   136.0000 </r>
      </set>
     </set>
    </array>
   </total>
  </dos>
 </calculation>
 <structure name="finalpos" >
  <crystal>
   <varray name="basis" >
    <v>       6.41989477      -0.37357175       0.97004990 </v>
    <v>      -1.03142583      10.20962509       0.16410667 </v>
    <v>       0.70972946       0.03752299       4.06223382 </v>
   </varray>
   <i name="volume">    257.54311047 </i>
   <varray name="rec_basis" >
    <v>       0.16101276       0.01672095      -0.02828565 </v>
    <v>       0.00603369       0.09858792      -0.00196483 </v>
    <v>      -0.03869314      -0.00797568       0.25300388 </v>
   </varray>
  </crystal>
  <varray name="positions" >
   <v>       0.14398421       0.66753635       0.46366458 </v>
   <v>       0.22554671       0.96192305       0.41679071 </v>
   <v>       0.42878419       0.52087490       0.31531585 </v>
   <v>       0.61806096       0.09760226       0.21149432 </v>
   <v>       0.80695072       0.66825163       0.13123403 </v>
   <v>       0.91422643       0.95898158       0.07167790 </v>
   <v>       0.10024999       0.51920476      -0.02128228 </v>
   <v>       0.71156949       0.37618469       0.16768955 </v>
   <v>       0.31840683       0.23027560       0.36192544 </v>
   <v>       0.51941438       0.81135504       0.27299730 </v>
   <v>       0.55408425      -0.04067417       0.74924577 </v>
   <v>       0.75701417       0.52270793       0.65209648 </v>
   <v>       0.04980584       0.37740108       0.49944856 </v>
   <v>       0.01379747       0.23103507       0.01323287 </v>
   <v>       0.19040099       0.80459168       0.93971157 </v>
   <v>       0.84968542       0.81040099       0.60941063 </v>
   <v>       0.64869038       0.23744572       0.69597846 </v>
   <v>       0.37990475       0.38135914       0.83428388 </v>
   <v>       0.47601086       0.66897278       0.79616683 </v>
   <v>       0.94372198       0.09569891       0.55088456 </v>
  </varray>
 </structure>
</modeling>
