unknown system                          
           1
     6.798060   -0.039113    0.863726
    -0.572891    9.147544    0.044044
     0.663395    0.014758    4.204022
   V    Fe
  17   3
Direct configuration=     1
   0.14128500  0.64759900  0.46121100
   0.21263700  0.97774900  0.42241400
   0.53040300  0.48818500  0.26436500
   0.63965300  0.03262400  0.20762500
   0.77476600  0.71406400  0.14110800
   0.98042500  0.97999100  0.03422700
   0.98259400  0.51298500  0.03647700
   0.80418100  0.27858300  0.12344400
   0.38216200  0.23261900  0.33940000
   0.46159300  0.80524500  0.30081700
   0.43352600  0.00190000  0.81038600
   0.75072500  0.51679200  0.64990300
   0.05701000  0.35709300  0.50031100
   0.16896200  0.21327700  0.94526200
   0.18574800  0.77921500  0.93509500
   0.82211900  0.84251200  0.61206300
   0.59672100  0.25548900  0.72692500
   0.32621500  0.45870000  0.86585500
   0.50056900  0.68759600  0.77813200
   0.89901600  0.11891100  0.57694700
unknown system                          
           1
     6.842194   -0.010165    0.903491
    -0.536702    9.200965    0.040974
     0.689394    0.017573    4.227461
   V    Fe
  17   3
Direct configuration=     2
   0.13941576  0.64619961  0.46203166
   0.21013391  0.97910327  0.42307392
   0.52428463  0.48680244  0.26638499
   0.64286736  0.03766061  0.20639714
   0.78027476  0.71256772  0.13826340
   0.97919651  0.97952368  0.03473865
   0.98826750  0.51160356  0.03340107
   0.80291987  0.27816562  0.12447085
   0.38174335  0.23334222  0.33958808
   0.46382512  0.80455642  0.29968259
   0.43468449  0.00123872  0.80998349
   0.75226662  0.51690098  0.64938202
   0.05492728  0.35711996  0.50214428
   0.17019017  0.21692813  0.94415295
   0.18423170  0.77843539  0.93539630
   0.82025592  0.84296606  0.61383410
   0.59594259  0.25692592  0.72732911
   0.32623964  0.45479411  0.86616552
   0.49861941  0.68766492  0.77857119
   0.90002340  0.11862965  0.57697569
unknown system                          
           1
     6.870845    0.008628    0.929306
    -0.513209    9.235646    0.038981
     0.706273    0.019401    4.242678
   V    Fe
  17   3
Direct configuration=     3
   0.13821302  0.64530007  0.46256985
   0.20851180  0.97998231  0.42351527
   0.52033692  0.48592217  0.26772043
   0.64492503  0.04090503  0.20559364
   0.78384195  0.71159133  0.13639459
   0.97840436  0.97922446  0.03507506
   0.99194107  0.51070100  0.03138209
   0.80210535  0.27789860  0.12514035
   0.38146997  0.23380982  0.33971277
   0.46527080  0.80410766  0.29893701
   0.43543559  0.00080964  0.80971646
   0.75326226  0.51696828  0.64903746
   0.05357907  0.35714125  0.50333970
   0.17097110  0.21928236  0.94343484
   0.18325547  0.77793525  0.93559791
   0.81904794  0.84326257  0.61498876
   0.59543379  0.25785484  0.72759621
   0.32626996  0.45227306  0.86636079
   0.49735997  0.68771329  0.77886530
   0.90067459  0.11844601  0.57698854
unknown system                          
           1
     6.845046    0.030994    0.949966
    -0.480726    9.201741    0.036524
     0.719193    0.021489    4.222308
   V    Fe
  17   3
Direct configuration=     4
   0.13694728  0.64438842  0.46278422
   0.20716950  0.98081830  0.42347700
   0.51607463  0.48520769  0.26907435
   0.64659429  0.04419822  0.20500541
   0.78729524  0.71002587  0.13434990
   0.97756407  0.97901654  0.03573780
   0.99646839  0.50948452  0.02912337
   0.80133377  0.27820474  0.12593375
   0.38134607  0.23419475  0.33961364
   0.46753801  0.80398774  0.29742893
   0.43626361  0.00051459  0.80955106
   0.75386634  0.51746989  0.64909455
   0.05138791  0.35681457  0.50440091
   0.17152586  0.22159600  0.94279171
   0.18240385  0.77764830  0.93604844
   0.81726990  0.84348647  0.61663472
   0.59516406  0.25874594  0.72807543
   0.32671556  0.44911221  0.86639926
   0.49618035  0.68778328  0.77934383
   0.90120131  0.11843095  0.57709871
unknown system                          
           1
     6.834810    0.039867    0.958163
    -0.467839    9.188290    0.035549
     0.724320    0.022317    4.214227
   V    Fe
  17   3
Direct configuration=     5
   0.13644446  0.64402659  0.46287207
   0.20663320  0.98115250  0.42346536
   0.51437646  0.48492716  0.26962380
   0.64725384  0.04550805  0.20476901
   0.78867598  0.70939934  0.13352534
   0.97722903  0.97893450  0.03600396
   0.99827661  0.50899594  0.02821118
   0.80102501  0.27832733  0.12625220
   0.38129610  0.23434816  0.33957463
   0.46844301  0.80393793  0.29682208
   0.43659422  0.00039631  0.80948299
   0.75410603  0.51766905  0.64911625
   0.05051448  0.35668650  0.50482906
   0.17174325  0.22251685  0.94253536
   0.18206464  0.77753482  0.93622994
   0.81655947  0.84357719  0.61729551
   0.59505448  0.25910101  0.72826778
   0.32689889  0.44785309  0.86641157
   0.49570977  0.68781224  0.77953748
   0.90141109  0.11842444  0.57714143
unknown system                          
           1
     6.832124    0.042196    0.960314
    -0.464457    9.184760    0.035294
     0.725665    0.022535    4.212106
   V    Fe
  17   3
Direct configuration=     6
   0.13631244  0.64393162  0.46289542
   0.20649206  0.98124047  0.42346268
   0.51393006  0.48485385  0.26976928
   0.64742664  0.04585213  0.20470666
   0.78903945  0.70923435  0.13330755
   0.97714092  0.97891302  0.03607415
   0.99875240  0.50886710  0.02797011
   0.80094371  0.27835961  0.12633616
   0.38128290  0.23438850  0.33956443
   0.46868108  0.80392463  0.29666193
   0.43668120  0.00036514  0.80946487
   0.75416893  0.51772133  0.64912184
   0.05028483  0.35665306  0.50494217
   0.17180001  0.22275881  0.94246797
   0.18197548  0.77750507  0.93627785
   0.81637251  0.84360120  0.61746974
   0.59502546  0.25919435  0.72831848
   0.32694769  0.44752213  0.86641449
   0.49558601  0.68781996  0.77958869
   0.90146623  0.11842267  0.57715254
unknown system                          
           1
     6.830045    0.046465    0.961424
    -0.458563    9.188609    0.035067
     0.726738    0.022977    4.207854
   V    Fe
  17   3
Direct configuration=     7
   0.13643621  0.64399934  0.46224422
   0.20687383  0.98107489  0.42275197
   0.51356997  0.48524719  0.26980918
   0.64693587  0.04571466  0.20500304
   0.78875906  0.70830244  0.13322838
   0.97715192  0.97909711  0.03657926
   0.99964193  0.50870438  0.02783637
   0.80096988  0.27955942  0.12656369
   0.38132867  0.23422576  0.33918439
   0.46987267  0.80436950  0.29555453
   0.43701356  0.00060183  0.80951825
   0.75352687  0.51841152  0.64981773
   0.04940338  0.35618071  0.50456254
   0.17115907  0.22182304  0.94276702
   0.18192557  0.77790928  0.93665278
   0.81567174  0.84348701  0.61805157
   0.59552390  0.25914376  0.72866796
   0.32780573  0.44691762  0.86597138
   0.49563171  0.68775273  0.77991479
   0.90110846  0.11860680  0.57728796
unknown system                          
           1
     6.823807    0.059270    0.964756
    -0.440882    9.200158    0.034388
     0.729956    0.024302    4.195098
   V    Fe
  17   3
Direct configuration=     8
   0.13680799  0.64420235  0.46028844
   0.20802053  0.98057794  0.42061705
   0.51248823  0.48642720  0.26992969
   0.64546325  0.04530309  0.20589352
   0.78792026  0.70550829  0.13299014
   0.97718399  0.97964906  0.03809635
   0.00231190  0.50821522  0.02743371
   0.80104492  0.28315727  0.12724793
   0.38146677  0.23373774  0.33804285
   0.47344824  0.80570208  0.29222797
   0.43801025  0.00131114  0.80967843
   0.75159761  0.52048201  0.65190884
   0.04675981  0.35476555  0.50342291
   0.16923802  0.21901774  0.94366503
   0.18177437  0.77912140  0.93777913
   0.81356860  0.84314549  0.61979952
   0.59701955  0.25899130  0.72971697
   0.33038268  0.44510372  0.86463929
   0.49576880  0.68755099  0.78089403
   0.90003423  0.11915943  0.57769518
unknown system                          
           1
     6.822254    0.062458    0.965585
    -0.436481    9.203033    0.034219
     0.730757    0.024632    4.191922
   V    Fe
  17   3
Direct configuration=     9
   0.13690090  0.64425276  0.45979992
   0.20830705  0.98045406  0.42008345
   0.51221784  0.48672097  0.26996029
   0.64509640  0.04520123  0.20611620
   0.78771321  0.70481384  0.13293029
   0.97719129  0.97978623  0.03847536
   0.00297763  0.50809268  0.02733238
   0.80106101  0.28405181  0.12741953
   0.38150175  0.23361639  0.33775762
   0.47433898  0.80603229  0.29139652
   0.43825810  0.00148715  0.80971833
   0.75111502  0.52099742  0.65243200
   0.04610229  0.35441464  0.50313865
   0.16876106  0.21832085  0.94388923
   0.18173562  0.77942280  0.93806073
   0.81304441  0.84306124  0.62023654
   0.59739214  0.25895283  0.72997857
   0.33102634  0.44465186  0.86430559
   0.49580289  0.68750075  0.78113852
   0.89976608  0.11929719  0.57779727
unknown system                          
           1
     6.839943    0.064384    0.969399
    -0.435454    9.235990    0.035321
     0.734121    0.025441    4.198098
   V    Fe
  17   3
Direct configuration=    10
   0.13728064  0.64463666  0.45967148
   0.20870567  0.97990969  0.42000506
   0.51174072  0.48699551  0.27049662
   0.64536423  0.04607997  0.20639767
   0.78822164  0.70369967  0.13279639
   0.97648780  0.97933618  0.03888835
   0.00533306  0.50862393  0.02538083
   0.80026672  0.28556509  0.12803260
   0.38141544  0.23315467  0.33775599
   0.47495380  0.80645137  0.29092929
   0.43860269  0.00165266  0.80930552
   0.75091858  0.52209293  0.65289231
   0.04549449  0.35385748  0.50370649
   0.16832886  0.21673631  0.94295427
   0.18173739  0.77993916  0.93757198
   0.81270481  0.84311512  0.62069646
   0.59774675  0.25932635  0.73039204
   0.33160384  0.44348751  0.86366698
   0.49452084  0.68724267  0.78190498
   0.89888203  0.11922607  0.57852168
unknown system                          
           1
     6.844371    0.064866    0.970353
    -0.435197    9.244240    0.035597
     0.734963    0.025643    4.199644
   V    Fe
  17   3
Direct configuration=    11
   0.13737543  0.64473240  0.45963933
   0.20880526  0.97977388  0.41998545
   0.51162151  0.48706401  0.27063072
   0.64543101  0.04629915  0.20646798
   0.78834870  0.70342173  0.13276292
   0.97631214  0.97922394  0.03899166
   0.00592132  0.50875637  0.02489276
   0.80006820  0.28594260  0.12818587
   0.38139393  0.23303950  0.33775561
   0.47510732  0.80655589  0.29081242
   0.43868876  0.00169394  0.80920229
   0.75086939  0.52236620  0.65300736
   0.04534273  0.35371852  0.50384852
   0.16822116  0.21634110  0.94272063
   0.18173783  0.78006797  0.93744978
   0.81261997  0.84312856  0.62081146
   0.59783523  0.25941950  0.73049536
   0.33174820  0.44319705  0.86350733
   0.49420068  0.68717834  0.78209670
   0.89866122  0.11920836  0.57870284
unknown system                          
           1
     6.840844    0.064166    0.969979
    -0.436191    9.246872    0.037338
     0.735065    0.026386    4.194564
   V    Fe
  17   3
Direct configuration=    12
   0.13761023  0.64504475  0.45974893
   0.20886942  0.97930777  0.42026357
   0.51127436  0.48705831  0.27115768
   0.64590400  0.04745928  0.20666743
   0.78901362  0.70276647  0.13273629
   0.97552447  0.97855372  0.03921668
   0.00814379  0.50931603  0.02299801
   0.79944452  0.28703788  0.12867862
   0.38129858  0.23260821  0.33784715
   0.47530715  0.80676632  0.29079266
   0.43883641  0.00171609  0.80884389
   0.75112914  0.52318484  0.65299775
   0.04508309  0.35332270  0.50442287
   0.16803371  0.21526563  0.94179908
   0.18176869  0.78048812  0.93677293
   0.81257929  0.84319642  0.62097697
   0.59790891  0.25992402  0.73076326
   0.33182127  0.44211170  0.86314443
   0.49281591  0.68690827  0.78278794
   0.89794343  0.11909248  0.57935087
unknown system                          
           1
     6.831150    0.062244    0.968949
    -0.438923    9.254104    0.042122
     0.735345    0.028429    4.180599
   V    Fe
  17   3
Direct configuration=    13
   0.13825604  0.64590302  0.46005013
   0.20904551  0.97802695  0.42102953
   0.51031947  0.48704246  0.27260788
   0.64720522  0.05064709  0.20721480
   0.79084185  0.70096613  0.13266377
   0.97335795  0.97671191  0.03983682
   0.01425668  0.51085473  0.01778277
   0.79772971  0.29004723  0.13003335
   0.38103610  0.23142306  0.33809962
   0.47585679  0.80734460  0.29073800
   0.43924264  0.00177709  0.80785754
   0.75184386  0.52543432  0.65297026
   0.04436867  0.35223488  0.50600401
   0.16751808  0.21231064  0.93926432
   0.18185404  0.78164275  0.93490971
   0.81246739  0.84338284  0.62143237
   0.59811167  0.26131028  0.73149989
   0.33202181  0.43912949  0.86214708
   0.48900736  0.68616576  0.78469068
   0.89596916  0.11877379  0.58113445
unknown system                          
           1
     6.826923    0.058468    0.966815
    -0.444454    9.259634    0.046518
     0.733509    0.029904    4.180919
   V    Fe
  17   3
Direct configuration=    14
   0.13825244  0.64587861  0.45946221
   0.20842525  0.97772490  0.42113295
   0.51012704  0.48680461  0.27275877
   0.64723809  0.05167811  0.20753020
   0.79094750  0.70072185  0.13316746
   0.97271437  0.97596194  0.04021201
   0.01584853  0.51104469  0.01736841
   0.79838853  0.29156026  0.13013155
   0.38075854  0.23099600  0.33787859
   0.47690728  0.80755859  0.29019224
   0.43942720  0.00177272  0.80803764
   0.75256655  0.52586656  0.65238099
   0.04438312  0.35197253  0.50527059
   0.16672890  0.21145093  0.93989567
   0.18141194  0.78246231  0.93488899
   0.81237901  0.84315699  0.62136115
   0.59803914  0.26203135  0.73164214
   0.33214676  0.43801785  0.86197253
   0.48810592  0.68561599  0.78536475
   0.89551387  0.11885220  0.58131816
unknown system                          
           1
     6.816588    0.049236    0.961595
    -0.457975    9.273156    0.057266
     0.729021    0.033511    4.181699
   V    Fe
  17   3
Direct configuration=    15
   0.13824320  0.64581918  0.45802502
   0.20690721  0.97698619  0.42138616
   0.50965586  0.48622317  0.27312818
   0.64732101  0.05419732  0.20829809
   0.79120576  0.70012487  0.13439964
   0.97113846  0.97412861  0.04113093
   0.01974308  0.51151059  0.01635629
   0.80000371  0.29525798  0.13036757
   0.38007841  0.22995231  0.33733932
   0.47947737  0.80808273  0.28885835
   0.43987883  0.00176217  0.80847810
   0.75433515  0.52692369  0.65093976
   0.04441742  0.35133178  0.50347849
   0.16479672  0.20934920  0.94144100
   0.18033218  0.78446447  0.93483542
   0.81216222  0.84260506  0.62118765
   0.59786341  0.26379315  0.73198760
   0.33244986  0.43530176  0.86154935
   0.48589982  0.68427149  0.78701346
   0.89440032  0.11904328  0.58176662
unknown system                          
           1
     6.809679    0.042992    0.963134
    -0.466225    9.280722    0.058522
     0.728784    0.033426    4.184622
   V    Fe
  17   3
Direct configuration=    16
   0.13852845  0.64570492  0.45797721
   0.20674540  0.97671938  0.42123317
   0.50967010  0.48608452  0.27266885
   0.64774698  0.05500240  0.20826509
   0.79119194  0.69944793  0.13445686
   0.97016146  0.97400065  0.04147287
   0.01993981  0.51191671  0.01584607
   0.80017855  0.29644111  0.12984416
   0.37969010  0.22958050  0.33763120
   0.47978698  0.80843660  0.28885544
   0.43991056  0.00202678  0.80900123
   0.75466054  0.52690649  0.65054727
   0.04495524  0.35152017  0.50374646
   0.16377058  0.20844303  0.94228385
   0.17988759  0.78494182  0.93481327
   0.81172637  0.84214241  0.62149823
   0.59810726  0.26404099  0.73172012
   0.33373495  0.43452439  0.86089182
   0.48594361  0.68369276  0.78722221
   0.89397351  0.11955544  0.58199162
unknown system                          
           1
     6.799591    0.033875    0.965381
    -0.478269    9.291769    0.060355
     0.728437    0.033302    4.188888
   V    Fe
  17   3
Direct configuration=    17
   0.13894517  0.64553850  0.45790728
   0.20650839  0.97633000  0.42101033
   0.50969059  0.48588225  0.27199881
   0.64837104  0.05617727  0.20821589
   0.79117055  0.69846039  0.13454092
   0.96873325  0.97381304  0.04197276
   0.02022800  0.51250935  0.01510117
   0.80043614  0.29816725  0.12907938
   0.37912192  0.22903772  0.33805771
   0.48024016  0.80895315  0.28885063
   0.43995750  0.00241285  0.80976420
   0.75513606  0.52688171  0.64997434
   0.04574173  0.35179552  0.50413677
   0.16226925  0.20712010  0.94351525
   0.17923860  0.78563774  0.93478096
   0.81108854  0.84146707  0.62195214
   0.59846408  0.26440278  0.73132945
   0.33561182  0.43339159  0.85993197
   0.48600662  0.68284854  0.78752719
   0.89335059  0.12030218  0.58231986
unknown system                          
           1
     6.779724    0.025548    0.968313
    -0.488392    9.292394    0.061511
     0.728381    0.033043    4.186739
   V    Fe
  17   3
Direct configuration=    18
   0.13956370  0.64567087  0.45788028
   0.20619111  0.97596851  0.42144173
   0.50968615  0.48552924  0.27150808
   0.64862387  0.05738956  0.20833986
   0.79083450  0.69758949  0.13451612
   0.96761826  0.97310594  0.04209284
   0.02168665  0.51282951  0.01398544
   0.80021586  0.29938180  0.12868291
   0.37887910  0.22836847  0.33874830
   0.48055810  0.80926307  0.28900171
   0.43944921  0.00264580  0.81028539
   0.75546366  0.52678845  0.64931936
   0.04650396  0.35234818  0.50415669
   0.16147766  0.20656211  0.94449949
   0.17921721  0.78585197  0.93478322
   0.81058462  0.84100957  0.62242365
   0.59863121  0.26450467  0.73079903
   0.33609197  0.43248256  0.85961337
   0.48575249  0.68278968  0.78764442
   0.89328073  0.12104953  0.58224511
unknown system                          
           1
     6.781143    0.026143    0.968103
    -0.487669    9.292350    0.061429
     0.728385    0.033062    4.186892
   V    Fe
  17   3
Direct configuration=    19
   0.13951936  0.64566138  0.45788228
   0.20621388  0.97599435  0.42141085
   0.50968651  0.48555446  0.27154313
   0.64860562  0.05730296  0.20833108
   0.79085867  0.69765171  0.13451782
   0.96769823  0.97315651  0.04208411
   0.02158210  0.51280656  0.01406534
   0.80023151  0.29929507  0.12871128
   0.37889657  0.22841628  0.33869889
   0.48053528  0.80924092  0.28899096
   0.43948561  0.00262919  0.81024810
   0.75544019  0.52679509  0.64936620
   0.04644928  0.35230866  0.50415537
   0.16153444  0.20660201  0.94442904
   0.17921872  0.78583667  0.93478307
   0.81062078  0.84104227  0.62238988
   0.59861922  0.26449738  0.73083696
   0.33605767  0.43254745  0.85963615
   0.48577070  0.68279390  0.78763601
   0.89328565  0.12099616  0.58225047
unknown system                          
           1
     6.777086    0.021984    0.970462
    -0.493208    9.300593    0.062282
     0.729073    0.033063    4.189080
   V    Fe
  17   3
Direct configuration=    20
   0.13986595  0.64577734  0.45781026
   0.20596007  0.97578889  0.42175668
   0.50965925  0.48535001  0.27135187
   0.64870528  0.05791081  0.20838003
   0.79070719  0.69717623  0.13447089
   0.96717815  0.97267193  0.04214089
   0.02254088  0.51295666  0.01346939
   0.80010276  0.29992548  0.12856704
   0.37875016  0.22806135  0.33909308
   0.48077293  0.80939568  0.28902599
   0.43914539  0.00271628  0.81050112
   0.75560425  0.52677320  0.64900794
   0.04683217  0.35264505  0.50400426
   0.16113806  0.20636697  0.94497025
   0.17924144  0.78591056  0.93488575
   0.81038604  0.84083978  0.62259315
   0.59867824  0.26453255  0.73057862
   0.33610193  0.43209637  0.85958433
   0.48555469  0.68287686  0.78767763
   0.89338515  0.12135703  0.58209784
unknown system                          
           1
     6.767708    0.012372    0.975914
    -0.506010    9.319647    0.064253
     0.730663    0.033065    4.194136
   V    Fe
  17   3
Direct configuration=    21
   0.14066785  0.64604550  0.45764318
   0.20537257  0.97531414  0.42255623
   0.50959586  0.48487783  0.27091024
   0.64893691  0.05931467  0.20849240
   0.79035595  0.69607800  0.13436313
   0.96597428  0.97155231  0.04227338
   0.02475895  0.51330428  0.01209085
   0.79980613  0.30138120  0.12823349
   0.37841080  0.22724153  0.34000431
   0.48132292  0.80975332  0.28910636
   0.43835857  0.00291703  0.81108615
   0.75598372  0.52672279  0.64818001
   0.04771844  0.35342230  0.50365420
   0.16022071  0.20582375  0.94622147
   0.17929412  0.78608121  0.93512287
   0.80984270  0.84037191  0.62306331
   0.59881487  0.26461381  0.72998168
   0.33620349  0.43105468  0.85946492
   0.48505517  0.68306821  0.78777408
   0.89361599  0.12219053  0.58174473
unknown system                          
           1
     6.769099    0.010611    0.975729
    -0.508699    9.323170    0.065298
     0.730639    0.033334    4.194485
   V    Fe
  17   3
Direct configuration=    22
   0.14073651  0.64610503  0.45746236
   0.20505748  0.97517076  0.42278099
   0.50951520  0.48477256  0.27095763
   0.64909664  0.05945409  0.20830094
   0.79060926  0.69574611  0.13419736
   0.96579955  0.97120988  0.04248741
   0.02518071  0.51345667  0.01192431
   0.79991362  0.30185633  0.12816448
   0.37815414  0.22714614  0.34014621
   0.48168372  0.80993485  0.28892315
   0.43815044  0.00292894  0.81131211
   0.75605760  0.52686156  0.64807405
   0.04770020  0.35354645  0.50337822
   0.15974063  0.20555817  0.94660304
   0.17914002  0.78624060  0.93550093
   0.80977064  0.84028741  0.62299034
   0.59883020  0.26462667  0.73003853
   0.33633434  0.43079560  0.85948035
   0.48495006  0.68312257  0.78774995
   0.89388904  0.12230862  0.58149464
unknown system                          
           1
     6.773012    0.005657    0.975208
    -0.516260    9.333078    0.068235
     0.730571    0.034087    4.195466
   V    Fe
  17   3
Direct configuration=    23
   0.14092960  0.64627240  0.45695389
   0.20417145  0.97476755  0.42341303
   0.50928830  0.48447660  0.27109095
   0.64954584  0.05984610  0.20776251
   0.79132106  0.69481332  0.13373160
   0.96530793  0.97024722  0.04308952
   0.02636666  0.51388524  0.01145602
   0.80021635  0.30319195  0.12797002
   0.37743247  0.22687785  0.34054523
   0.48269829  0.81044533  0.28840793
   0.43756530  0.00296229  0.81194740
   0.75626546  0.52725167  0.64777599
   0.04764908  0.35389545  0.50260210
   0.15839059  0.20481135  0.94767607
   0.17870696  0.78668853  0.93656375
   0.80956797  0.84004987  0.62278520
   0.59887333  0.26466281  0.73019838
   0.33670193  0.43006739  0.85952400
   0.48465461  0.68327532  0.78768203
   0.89465683  0.12264075  0.58079136
unknown system                          
           1
     6.770729    0.004155    0.974671
    -0.518227    9.331637    0.068702
     0.730269    0.034136    4.193491
   V    Fe
  17   3
Direct configuration=    24
   0.14097950  0.64631808  0.45685403
   0.20396770  0.97467669  0.42360953
   0.50919085  0.48440496  0.27119257
   0.64976130  0.05996142  0.20754032
   0.79150905  0.69455787  0.13358654
   0.96512759  0.96996291  0.04329696
   0.02676688  0.51401671  0.01119571
   0.80023914  0.30357295  0.12795054
   0.37723842  0.22681571  0.34062962
   0.48303763  0.81058561  0.28822713
   0.43742086  0.00297610  0.81209759
   0.75627034  0.52739955  0.64776106
   0.04751848  0.35396452  0.50249798
   0.15797858  0.20455695  0.94788299
   0.17862809  0.78684540  0.93681765
   0.80951571  0.83997090  0.62272744
   0.59885056  0.26466971  0.73027916
   0.33686858  0.42985383  0.85953188
   0.48458049  0.68329016  0.78764916
   0.89486025  0.12272896  0.58063913
unknown system                          
           1
     6.764330   -0.000056    0.973167
    -0.523743    9.327597    0.070009
     0.729423    0.034271    4.187954
   V    Fe
  17   3
Direct configuration=    25
   0.14111946  0.64644616  0.45657401
   0.20339635  0.97442189  0.42416058
   0.50891753  0.48420410  0.27147757
   0.65036551  0.06028478  0.20691723
   0.79203592  0.69384186  0.13317994
   0.96462170  0.96916585  0.04387879
   0.02788916  0.51438544  0.01046573
   0.80030337  0.30464102  0.12789571
   0.37669428  0.22664142  0.34086628
   0.48398918  0.81097901  0.28772009
   0.43701589  0.00301475  0.81251871
   0.75628415  0.52781407  0.64771910
   0.04715237  0.35415807  0.50220595
   0.15682318  0.20384362  0.94846333
   0.17840710  0.78728512  0.93752952
   0.80936910  0.83974950  0.62256549
   0.59878672  0.26468902  0.73050569
   0.33733565  0.42925524  0.85955408
   0.48437269  0.68333172  0.78755696
   0.89543068  0.12297635  0.58021224
unknown system                          
           1
     6.762720   -0.002784    0.973760
    -0.527366    9.331179    0.069964
     0.729712    0.034002    4.187199
   V    Fe
  17   3
Direct configuration=    26
   0.14124693  0.64651580  0.45652075
   0.20327429  0.97434750  0.42444188
   0.50870279  0.48413573  0.27171436
   0.65079135  0.06052267  0.20655543
   0.79217079  0.69349584  0.13298650
   0.96428317  0.96874875  0.04416205
   0.02863731  0.51457115  0.00983829
   0.80017301  0.30517802  0.12793899
   0.37645784  0.22652679  0.34097744
   0.48448759  0.81115708  0.28746131
   0.43689025  0.00306248  0.81262189
   0.75621906  0.52802052  0.64777426
   0.04686851  0.35424957  0.50227346
   0.15624842  0.20341956  0.94859854
   0.17841430  0.78752331  0.93771193
   0.80930213  0.83962350  0.62254963
   0.59869089  0.26469312  0.73060928
   0.33762091  0.42894667  0.85956103
   0.48423479  0.68328879  0.78752690
   0.89559567  0.12310215  0.58014309
unknown system                          
           1
     6.757890   -0.010966    0.975537
    -0.538238    9.341924    0.069829
     0.730576    0.033196    4.184933
   V    Fe
  17   3
Direct configuration=    27
   0.14162954  0.64672474  0.45636085
   0.20290781  0.97412434  0.42528606
   0.50805823  0.48393052  0.27242503
   0.65206969  0.06123640  0.20546946
   0.79257503  0.69245830  0.13240607
   0.96326660  0.96749766  0.04501233
   0.03088280  0.51512867  0.00795506
   0.79978263  0.30678830  0.12806875
   0.37574810  0.22618285  0.34131120
   0.48598359  0.81169148  0.28668445
   0.43651327  0.00320553  0.81293157
   0.75602407  0.52863959  0.64793976
   0.04601680  0.35452372  0.50247616
   0.15452299  0.20214737  0.94900476
   0.17843626  0.78823761  0.93825918
   0.80910097  0.83924559  0.62250210
   0.59840328  0.26470534  0.73092018
   0.33847646  0.42802156  0.85958178
   0.48382091  0.68315991  0.78743679
   0.89609099  0.12347955  0.57993547
unknown system                          
           1
     6.748231   -0.027332    0.979093
    -0.559981    9.363413    0.069558
     0.732305    0.031584    4.180402
   V    Fe
  17   3
Direct configuration=    28
   0.14239613  0.64714277  0.45604024
   0.20217323  0.97367802  0.42697600
   0.50676712  0.48351956  0.27384816
   0.65463116  0.06266430  0.20329419
   0.79338118  0.69038620  0.13124468
   0.96122753  0.96499670  0.04671596
   0.03538004  0.51624605  0.00418318
   0.79900615  0.31000450  0.12832793
   0.37432621  0.22549457  0.34198021
   0.48898007  0.81276155  0.28512758
   0.43575899  0.00349069  0.81355169
   0.75563561  0.52987598  0.64827081
   0.04431270  0.35506992  0.50288271
   0.15106509  0.19960294  0.94982065
   0.17848221  0.78966471  0.93935385
   0.80869716  0.83849026  0.62240747
   0.59782750  0.26472929  0.73154270
   0.34018613  0.42617498  0.85962279
   0.48299208  0.68290170  0.78725710
   0.89708371  0.12423431  0.57951911
unknown system                          
           1
     6.728911   -0.060062    0.986204
    -0.603466    9.406392    0.069017
     0.735762    0.028361    4.171340
   V    Fe
  17   3
Direct configuration=    29
   0.14393477  0.64797953  0.45539579
   0.20069754  0.97278540  0.43036227
   0.50417686  0.48269547  0.27670154
   0.65977335  0.06552184  0.19893023
   0.79498427  0.68625392  0.12891969
   0.95712562  0.95999961  0.05013553
   0.04439967  0.51849027 -0.00338229
   0.79747028  0.31641956  0.12884487
   0.37147281  0.22411638  0.34332431
   0.49499109  0.81490682  0.28200118
   0.43424916  0.00405726  0.81479495
   0.75486477  0.53234185  0.64893315
   0.04090175  0.35615399  0.50370046
   0.14412104  0.19451382  0.95146638
   0.17858233  0.79251292  0.94154384
   0.80788353  0.83698161  0.62221997
   0.59667365  0.26477526  0.73279065
   0.34359987  0.42249627  0.85970283
   0.48133011  0.68238350  0.78689973
   0.89907754  0.12574372  0.57868193
unknown system                          
           1
     6.744378   -0.033858    0.980511
    -0.568652    9.371983    0.069450
     0.732994    0.030941    4.178595
   V    Fe
  17   3
Direct configuration=    30
   0.14269413  0.64730851  0.45591697
   0.20188951  0.97350004  0.42764093
   0.50626358  0.48335877  0.27440559
   0.65562549  0.06323116  0.20244570
   0.79371550  0.68954335  0.13078457
   0.96044779  0.96399278  0.04737789
   0.03713792  0.51667835  0.00270971
   0.79867265  0.31131110  0.12843333
   0.37377279  0.22522242  0.34223842
   0.49014950  0.81318104  0.28452462
   0.43546005  0.00360963  0.81379472
   0.75547220  0.53037860  0.64840254
   0.04363713  0.35529938  0.50303828
   0.14972592  0.19858879  0.95012623
   0.17848907  0.79024211  0.93978951
   0.80854455  0.83818630  0.62236723
   0.59760113  0.26474153  0.73178687
   0.34087565  0.42541850  0.85964195
   0.48266765  0.68280126  0.78718255
   0.89746776  0.12453538  0.57935939
unknown system                          
           1
     6.743236   -0.037721    0.981983
    -0.573870    9.380665    0.069485
     0.733659    0.030613    4.179310
   V    Fe
  17   3
Direct configuration=    31
   0.14286379  0.64739198  0.45577725
   0.20189601  0.97344441  0.42781358
   0.50592697  0.48329098  0.27470376
   0.65604633  0.06359226  0.20212532
   0.79380000  0.68914215  0.13060460
   0.96012285  0.96349060  0.04762206
   0.03805286  0.51685923  0.00206968
   0.79852764  0.31195526  0.12849148
   0.37350464  0.22504132  0.34239003
   0.49062629  0.81339146  0.28427211
   0.43543946  0.00369505  0.81380537
   0.75543542  0.53050649  0.64841807
   0.04337818  0.35542635  0.50305483