  20  20   0   0
  0.1295360E+02  0.6369668E-09  0.9635389E-09  0.4287172E-09  0.5000000E-15
  1.000000000000000E-004
  CAR 
 unknown system                          
      9.03112213     -1.41209657  301      6.54594057      1.00000000
     -1.412  0.0000E+00  0.0000E+00
     -1.377  0.0000E+00  0.0000E+00
     -1.342  0.0000E+00  0.0000E+00
     -1.308  0.0000E+00  0.0000E+00
     -1.273  0.0000E+00  0.0000E+00
     -1.238  0.0000E+00  0.0000E+00
     -1.203  0.0000E+00  0.0000E+00
     -1.168  0.0000E+00  0.0000E+00
     -1.134  0.0000E+00  0.0000E+00
     -1.099  0.0000E+00  0.0000E+00
     -1.064  0.0000E+00  0.0000E+00
     -1.029  0.0000E+00  0.0000E+00
     -0.994  0.1063E-17  0.3701E-19
     -0.960  0.4571E-16  0.1628E-17
     -0.925  0.1949E-14  0.6948E-16
     -0.890  0.6514E-13  0.2337E-14
     -0.855  0.1714E-11  0.6199E-13
     -0.820  0.3549E-10  0.1297E-11
     -0.786  0.5786E-09  0.2144E-10
     -0.751  0.7430E-08  0.2801E-09
     -0.716  0.7515E-07  0.2896E-08
     -0.681  0.5988E-06  0.2374E-07
     -0.646  0.3760E-05  0.1546E-06
     -0.611  0.1860E-04  0.8022E-06
     -0.577  0.7255E-04  0.3328E-05
     -0.542  0.2230E-03  0.1109E-04
     -0.507  0.5406E-03  0.2991E-04
     -0.472  0.1033E-02  0.6588E-04
     -0.437  0.1557E-02  0.1201E-03
     -0.403  0.1850E-02  0.1845E-03
     -0.368  0.1734E-02  0.2449E-03
     -0.333  0.1282E-02  0.2895E-03
     -0.298  0.7477E-03  0.3155E-03
     -0.263  0.3478E-03  0.3276E-03
     -0.229  0.1464E-03  0.3327E-03
     -0.194  0.1192E-03  0.3369E-03
     -0.159  0.2582E-03  0.3459E-03
     -0.124  0.5914E-03  0.3664E-03
     -0.089  0.1097E-02  0.4046E-03
     -0.054  0.1609E-02  0.4606E-03
     -0.020  0.1864E-02  0.5255E-03
      0.015  0.1717E-02  0.5853E-03
      0.050  0.1302E-02  0.6306E-03
      0.085  0.9404E-03  0.6633E-03
      0.120  0.8976E-03  0.6946E-03
      0.154  0.1204E-02  0.7365E-03
      0.189  0.1637E-02  0.7935E-03
      0.224  0.1866E-02  0.8584E-03
      0.259  0.1697E-02  0.9175E-03
      0.294  0.1222E-02  0.9601E-03
      0.328  0.7014E-03  0.9845E-03
      0.363  0.3496E-03  0.9966E-03
      0.398  0.2469E-03  0.1005E-02
      0.433  0.4059E-03  0.1019E-02
      0.468  0.8248E-03  0.1048E-02
      0.502  0.1450E-02  0.1099E-02
      0.537  0.2166E-02  0.1174E-02
      0.572  0.2920E-02  0.1276E-02
      0.607  0.3813E-02  0.1408E-02
      0.642  0.4904E-02  0.1579E-02
      0.677  0.5924E-02  0.1785E-02
      0.711  0.6375E-02  0.2007E-02
      0.746  0.5990E-02  0.2216E-02
      0.781  0.4978E-02  0.2389E-02
      0.816  0.3826E-02  0.2522E-02
      0.851  0.3030E-02  0.2628E-02
      0.885  0.2959E-02  0.2731E-02
      0.920  0.3682E-02  0.2859E-02
      0.955  0.4769E-02  0.3025E-02
      0.990  0.5435E-02  0.3214E-02
      1.025  0.5110E-02  0.3392E-02
      1.059  0.3922E-02  0.3528E-02
      1.094  0.2594E-02  0.3619E-02
      1.129  0.1917E-02  0.3685E-02
      1.164  0.2333E-02  0.3767E-02
      1.199  0.3781E-02  0.3898E-02
      1.234  0.5651E-02  0.4095E-02
      1.268  0.6979E-02  0.4338E-02
      1.303  0.7051E-02  0.4583E-02
      1.338  0.6028E-02  0.4793E-02
      1.373  0.4903E-02  0.4964E-02
      1.408  0.4713E-02  0.5128E-02
      1.442  0.5712E-02  0.5327E-02
      1.477  0.7206E-02  0.5578E-02
      1.512  0.8201E-02  0.5863E-02
      1.547  0.8243E-02  0.6150E-02
      1.582  0.7618E-02  0.6415E-02
      1.616  0.6879E-02  0.6655E-02
      1.651  0.6417E-02  0.6878E-02
      1.686  0.6391E-02  0.7101E-02
      1.721  0.6662E-02  0.7333E-02
      1.756  0.6810E-02  0.7570E-02
      1.790  0.6524E-02  0.7797E-02
      1.825  0.6003E-02  0.8006E-02
      1.860  0.5726E-02  0.8205E-02
      1.895  0.5960E-02  0.8412E-02
      1.930  0.6705E-02  0.8646E-02
      1.965  0.7850E-02  0.8919E-02
      1.999  0.9017E-02  0.9233E-02
      2.034  0.9463E-02  0.9562E-02
      2.069  0.8593E-02  0.9862E-02
      2.104  0.6623E-02  0.1009E-01
      2.139  0.4565E-02  0.1025E-01
      2.173  0.3542E-02  0.1037E-01
      2.208  0.4146E-02  0.1052E-01
      2.243  0.6172E-02  0.1073E-01
      2.278  0.8657E-02  0.1103E-01
      2.313  0.1025E-01  0.1139E-01
      2.347  0.9981E-02  0.1174E-01
      2.382  0.7932E-02  0.1202E-01
      2.417  0.5203E-02  0.1220E-01
      2.452  0.3112E-02  0.1230E-01
      2.487  0.2479E-02  0.1239E-01
      2.522  0.3467E-02  0.1251E-01
      2.556  0.5672E-02  0.1271E-01
      2.591  0.8201E-02  0.1299E-01
      2.626  0.1003E-01  0.1334E-01
      2.661  0.1062E-01  0.1371E-01
      2.696  0.1021E-01  0.1407E-01
      2.730  0.9428E-02  0.1440E-01
      2.765  0.8822E-02  0.1470E-01
      2.800  0.9032E-02  0.1502E-01
      2.835  0.1091E-01  0.1540E-01
      2.870  0.1494E-01  0.1592E-01
      2.904  0.2048E-01  0.1663E-01
      2.939  0.2583E-01  0.1753E-01
      2.974  0.2942E-01  0.1855E-01
      3.009  0.3096E-01  0.1963E-01
      3.044  0.3128E-01  0.2072E-01
      3.078  0.3132E-01  0.2181E-01
      3.113  0.3133E-01  0.2290E-01
      3.148  0.3101E-01  0.2398E-01
      3.183  0.3021E-01  0.2503E-01
      3.218  0.2941E-01  0.2606E-01
      3.253  0.2921E-01  0.2707E-01
      3.287  0.2975E-01  0.2811E-01
      3.322  0.3102E-01  0.2919E-01
      3.357  0.3326E-01  0.3035E-01
      3.392  0.3662E-01  0.3162E-01
      3.427  0.4044E-01  0.3303E-01
      3.461  0.4348E-01  0.3454E-01
      3.496  0.4513E-01  0.3611E-01
      3.531  0.4597E-01  0.3771E-01
      3.566  0.4706E-01  0.3935E-01
      3.601  0.4874E-01  0.4105E-01
      3.635  0.5061E-01  0.4281E-01
      3.670  0.5252E-01  0.4464E-01
      3.705  0.5493E-01  0.4655E-01
      3.740  0.5819E-01  0.4858E-01
      3.775  0.6186E-01  0.5073E-01
      3.810  0.6514E-01  0.5300E-01
      3.844  0.6762E-01  0.5535E-01
      3.879  0.6926E-01  0.5776E-01
      3.914  0.6983E-01  0.6019E-01
      3.949  0.6891E-01  0.6259E-01
      3.984  0.6654E-01  0.6491E-01
      4.018  0.6360E-01  0.6712E-01
      4.053  0.6133E-01  0.6926E-01
      4.088  0.6008E-01  0.7135E-01
      4.123  0.5857E-01  0.7339E-01
      4.158  0.5494E-01  0.7530E-01
      4.192  0.4871E-01  0.7700E-01
      4.227  0.4147E-01  0.7844E-01
      4.262  0.3560E-01  0.7968E-01
      4.297  0.3255E-01  0.8081E-01
      4.332  0.3195E-01  0.8192E-01
      4.366  0.3206E-01  0.8304E-01
      4.401  0.3112E-01  0.8412E-01
      4.436  0.2899E-01  0.8513E-01
      4.471  0.2745E-01  0.8609E-01
      4.506  0.2875E-01  0.8709E-01
      4.541  0.3375E-01  0.8826E-01
      4.575  0.4118E-01  0.8970E-01
      4.610  0.4874E-01  0.9139E-01
      4.645  0.5463E-01  0.9330E-01
      4.680  0.5840E-01  0.9533E-01
      4.715  0.6081E-01  0.9745E-01
      4.749  0.6284E-01  0.9963E-01
      4.784  0.6493E-01  0.1019E+00
      4.819  0.6684E-01  0.1042E+00
      4.854  0.6817E-01  0.1066E+00
      4.889  0.6883E-01  0.1090E+00
      4.923  0.6882E-01  0.1114E+00
      4.958  0.6803E-01  0.1138E+00
      4.993  0.6639E-01  0.1161E+00
      5.028  0.6426E-01  0.1183E+00
      5.063  0.6220E-01  0.1205E+00
      5.098  0.6057E-01  0.1226E+00
      5.132  0.5946E-01  0.1246E+00
      5.167  0.5903E-01  0.1267E+00
      5.202  0.5973E-01  0.1288E+00
      5.237  0.6197E-01  0.1309E+00
      5.272  0.6557E-01  0.1332E+00
      5.306  0.6961E-01  0.1356E+00
      5.341  0.7298E-01  0.1382E+00
      5.376  0.7515E-01  0.1408E+00
      5.411  0.7619E-01  0.1435E+00
      5.446  0.7611E-01  0.1461E+00
      5.480  0.7464E-01  0.1487E+00
      5.515  0.7174E-01  0.1512E+00
      5.550  0.6807E-01  0.1536E+00
      5.585  0.6467E-01  0.1558E+00
      5.620  0.6242E-01  0.1580E+00
      5.654  0.6190E-01  0.1601E+00
      5.689  0.6311E-01  0.1623E+00
      5.724  0.6508E-01  0.1646E+00
      5.759  0.6621E-01  0.1669E+00
      5.794  0.6553E-01  0.1692E+00
      5.829  0.6332E-01  0.1714E+00
      5.863  0.6081E-01  0.1735E+00
      5.898  0.5938E-01  0.1756E+00
      5.933  0.6007E-01  0.1777E+00
      5.968  0.6324E-01  0.1799E+00
      6.003  0.6836E-01  0.1823E+00
      6.037  0.7407E-01  0.1848E+00
      6.072  0.7865E-01  0.1876E+00
      6.107  0.8076E-01  0.1904E+00
      6.142  0.8021E-01  0.1932E+00
      6.177  0.7796E-01  0.1959E+00
      6.211  0.7514E-01  0.1985E+00
      6.246  0.7203E-01  0.2010E+00
      6.281  0.6841E-01  0.2034E+00
      6.316  0.6447E-01  0.2056E+00
      6.351  0.6092E-01  0.2078E+00
      6.386  0.5818E-01  0.2098E+00
      6.420  0.5596E-01  0.2117E+00
      6.455  0.5367E-01  0.2136E+00
      6.490  0.5096E-01  0.2154E+00
      6.525  0.4791E-01  0.2170E+00
      6.560  0.4470E-01  0.2186E+00
      6.594  0.4130E-01  0.2200E+00
      6.629  0.3756E-01  0.2213E+00
      6.664  0.3346E-01  0.2225E+00
      6.699  0.2910E-01  0.2235E+00
      6.734  0.2481E-01  0.2244E+00
      6.768  0.2124E-01  0.2251E+00
      6.803  0.1903E-01  0.2258E+00
      6.838  0.1827E-01  0.2264E+00
      6.873  0.1858E-01  0.2271E+00
      6.908  0.1954E-01  0.2277E+00
      6.942  0.2107E-01  0.2285E+00
      6.977  0.2335E-01  0.2293E+00
      7.012  0.2667E-01  0.2302E+00
      7.047  0.3106E-01  0.2313E+00
      7.082  0.3582E-01  0.2325E+00
      7.117  0.3989E-01  0.2339E+00
      7.151  0.4272E-01  0.2354E+00
      7.186  0.4455E-01  0.2370E+00
      7.221  0.4587E-01  0.2386E+00
      7.256  0.4710E-01  0.2402E+00
      7.291  0.4888E-01  0.2419E+00
      7.325  0.5205E-01  0.2437E+00
      7.360  0.5682E-01  0.2457E+00
      7.395  0.6207E-01  0.2479E+00
      7.430  0.6566E-01  0.2501E+00
      7.465  0.6596E-01  0.2524E+00
      7.499  0.6321E-01  0.2546E+00
      7.534  0.5941E-01  0.2567E+00
      7.569  0.5660E-01  0.2587E+00
      7.604  0.5532E-01  0.2606E+00
      7.639  0.5463E-01  0.2625E+00
      7.674  0.5309E-01  0.2644E+00
      7.708  0.4966E-01  0.2661E+00
      7.743  0.4395E-01  0.2676E+00
      7.778  0.3624E-01  0.2689E+00
      7.813  0.2744E-01  0.2698E+00
      7.848  0.1900E-01  0.2705E+00
      7.882  0.1232E-01  0.2709E+00
      7.917  0.8072E-02  0.2712E+00
      7.952  0.5906E-02  0.2714E+00
      7.987  0.4886E-02  0.2716E+00
      8.022  0.4154E-02  0.2717E+00
      8.056  0.3283E-02  0.2718E+00
      8.091  0.2268E-02  0.2719E+00
      8.126  0.1321E-02  0.2720E+00
      8.161  0.6344E-03  0.2720E+00
      8.196  0.2474E-03  0.2720E+00
      8.230  0.7760E-04  0.2720E+00
      8.265  0.1943E-04  0.2720E+00
      8.300  0.3867E-05  0.2720E+00
      8.335  0.6098E-06  0.2720E+00
      8.370  0.7604E-07  0.2720E+00
      8.405  0.7486E-08  0.2720E+00
      8.439  0.5815E-09  0.2720E+00
      8.474  0.3560E-10  0.2720E+00
      8.509  0.1717E-11  0.2720E+00
      8.544  0.6523E-13  0.2720E+00
      8.579  0.1952E-14  0.2720E+00
      8.613  0.4571E-16  0.2720E+00
      8.648  0.1063E-17  0.2720E+00
      8.683  0.0000E+00  0.2720E+00
      8.718  0.0000E+00  0.2720E+00
      8.753  0.0000E+00  0.2720E+00
      8.787  0.0000E+00  0.2720E+00
      8.822  0.0000E+00  0.2720E+00
      8.857  0.0000E+00  0.2720E+00
      8.892  0.0000E+00  0.2720E+00
      8.927  0.0000E+00  0.2720E+00
      8.962  0.0000E+00  0.2720E+00
      8.996  0.0000E+00  0.2720E+00
      9.031  0.0000E+00  0.2720E+00
