   20   20  500    1
  0.1295360E+02  0.6369668E-09  0.9635389E-09  0.4287172E-09  0.5000000E-15
  1.000000000000000E-004
  CAR 
 unknown system                          
    109      8     68
 
  0.0000000E+00  0.0000000E+00  0.0000000E+00  0.8333333E-01
    1       -0.412097   1.000000
    2        1.300032   1.000000
    3        1.524583   1.000000
    4        2.841376   1.000000
    5        2.953651   1.000000
    6        3.056172   1.000000
    7        3.139394   1.000000
    8        3.238532   1.000000
    9        3.559721   1.000000
   10        3.591260   1.000000
   11        3.722738   1.000000
   12        3.734729   1.000000
   13        3.890726   1.000000
   14        3.941359   1.000000
   15        3.999895   1.000000
   16        4.068220   1.000000
   17        4.121276   1.000000
   18        4.152586   1.000000
   19        4.213570   1.000000
   20        4.347230   1.000000
   21        4.366565   1.000000
   22        4.380187   1.000000
   23        4.560389   1.000000
   24        4.568681   1.000000
   25        4.591047   1.000000
   26        4.635557   1.000000
   27        4.752986   1.000000
   28        4.807171   1.000000
   29        4.812190   1.000000
   30        4.853679   1.000000
   31        4.881077   1.000000
   32        4.978617   1.000000
   33        4.987510   1.000000
   34        5.114058   1.000000
   35        5.178201   1.000000
   36        5.262228   1.000000
   37        5.272567   1.000000
   38        5.298516   1.000000
   39        5.354587   1.000000
   40        5.495790   1.000000
   41        5.504684   1.000000
   42        5.660727   1.000000
   43        5.774699   1.000000
   44        5.887625   1.000000
   45        5.942072   1.000000
   46        6.060466   1.000000
   47        6.188808   1.000000
   48        6.210733   0.999999
   49        6.304293   0.999684
   50        6.348261   0.997410
   51        6.390940   0.985812
   52        6.455923   0.898499
   53        6.477761   0.832528
   54        6.509800   0.695360
   55        6.664036   0.047448
   56        6.681977   0.027187
   57        6.862799   0.000004
   58        6.869224   0.000002
   59        6.987468   0.000000
   60        7.234108   0.000000
   61        7.246064   0.000000
   62        7.374520   0.000000
   63        7.487756   0.000000
   64        7.543784   0.000000
   65        7.547938   0.000000
   66        7.665870   0.000000
   67        7.686504   0.000000
   68        7.801112   0.000000
 
  0.5000000E+00 -0.8642657E-17  0.1373389E-21  0.8333333E-01
    1        0.543847   1.000000
    2        0.789446   1.000000
    3        1.752787   1.000000
    4        1.999105   1.000000
    5        2.589917   1.000000
    6        2.640483   1.000000
    7        2.983145   1.000000
    8        3.073264   1.000000
    9        3.093726   1.000000
   10        3.576547   1.000000
   11        3.744906   1.000000
   12        3.832360   1.000000
   13        3.878894   1.000000
   14        3.946175   1.000000
   15        4.039295   1.000000
   16        4.115366   1.000000
   17        4.155701   1.000000
   18        4.209295   1.000000
   19        4.270724   1.000000
   20        4.311007   1.000000
   21        4.425752   1.000000
   22        4.473552   1.000000
   23        4.517827   1.000000
   24        4.549614   1.000000
   25        4.587972   1.000000
   26        4.652234   1.000000
   27        4.852972   1.000000
   28        4.991759   1.000000
   29        5.011296   1.000000
   30        5.089326   1.000000
   31        5.108149   1.000000
   32        5.133498   1.000000
   33        5.191019   1.000000
   34        5.238708   1.000000
   35        5.282520   1.000000
   36        5.333379   1.000000
   37        5.395747   1.000000
   38        5.478294   1.000000
   39        5.504629   1.000000
   40        5.657686   1.000000
   41        5.736043   1.000000
   42        5.737085   1.000000
   43        5.805860   1.000000
   44        5.853186   1.000000
   45        5.910293   1.000000
   46        5.919525   1.000000
   47        5.933485   1.000000
   48        5.957937   1.000000
   49        5.984460   1.000000
   50        6.018453   1.000000
   51        6.097363   1.000000
   52        6.131328   1.000000
   53        6.196970   1.000000
   54        6.274559   0.999938
   55        6.310869   0.999557
   56        6.489643   0.787032
   57        7.207262   0.000000
   58        7.214202   0.000000
   59        7.373788   0.000000
   60        7.387444   0.000000
   61        7.401490   0.000000
   62        7.437727   0.000000
   63        7.461482   0.000000
   64        7.534204   0.000000
   65        7.769031   0.000000
   66        7.900384   0.000000
   67        7.967001   0.000000
   68        8.031122   0.000000
 
  0.0000000E+00  0.5000000E+00 -0.2196765E-20  0.8333333E-01
    1       -0.033216   1.000000
    2        0.210554   1.000000
    3        2.585018   1.000000
    4        2.756202   1.000000
    5        2.942883   1.000000
    6        3.064224   1.000000
    7        3.286216   1.000000
    8        3.445535   1.000000
    9        3.578916   1.000000
   10        3.620830   1.000000
   11        3.684972   1.000000
   12        3.714506   1.000000
   13        3.815851   1.000000
   14        3.843620   1.000000
   15        3.923803   1.000000
   16        3.940404   1.000000
   17        4.010016   1.000000
   18        4.078726   1.000000
   19        4.111274   1.000000
   20        4.145451   1.000000
   21        4.412771   1.000000
   22        4.453358   1.000000
   23        4.521228   1.000000
   24        4.589094   1.000000
   25        4.635137   1.000000
   26        4.673411   1.000000
   27        4.678931   1.000000
   28        4.759582   1.000000
   29        4.847883   1.000000
   30        4.849890   1.000000
   31        4.946494   1.000000
   32        4.963061   1.000000
   33        5.119408   1.000000
   34        5.130906   1.000000
   35        5.180987   1.000000
   36        5.285117   1.000000
   37        5.368901   1.000000
   38        5.412635   1.000000
   39        5.456461   1.000000
   40        5.458242   1.000000
   41        5.535838   1.000000
   42        5.564886   1.000000
   43        5.598396   1.000000
   44        5.611189   1.000000
   45        5.712928   1.000000
   46        5.896527   1.000000
   47        6.241072   0.999992
   48        6.277257   0.999928
   49        6.286688   0.999877
   50        6.328367   0.998954
   51        6.396643   0.982630
   52        6.554151   0.453779
   53        6.609709   0.183575
   54        6.613050   0.171293
   55        6.821526   0.000049
   56        6.937705   0.000000
   57        6.985193   0.000000
   58        7.085984   0.000000
   59        7.098273   0.000000
   60        7.164556   0.000000
   61        7.206301   0.000000
   62        7.230806   0.000000
   63        7.301641   0.000000
   64        7.385214   0.000000
   65        7.502465   0.000000
   66        7.669629   0.000000
   67        7.727784   0.000000
   68        7.798516   0.000000
 
  0.5000000E+00  0.5000000E+00 -0.2217435E-20  0.8333333E-01
    1        0.710831   1.000000
    2        0.954393   1.000000
    3        1.276161   1.000000
    4        1.488686   1.000000
    5        3.124826   1.000000
    6        3.248891   1.000000
    7        3.263431   1.000000
    8        3.275707   1.000000
    9        3.338504   1.000000
   10        3.404908   1.000000
   11        3.433185   1.000000
   12        3.459274   1.000000
   13        3.643143   1.000000
   14        3.752327   1.000000
   15        3.772822   1.000000
   16        3.813536   1.000000
   17        4.087565   1.000000
   18        4.250148   1.000000
   19        4.391236   1.000000
   20        4.520437   1.000000
   21        4.570095   1.000000
   22        4.635724   1.000000
   23        4.720999   1.000000
   24        4.772910   1.000000
   25        4.791395   1.000000
   26        4.803370   1.000000
   27        4.831541   1.000000
   28        4.878000   1.000000
   29        4.920724   1.000000
   30        4.939057   1.000000
   31        5.041509   1.000000
   32        5.081211   1.000000
   33        5.171924   1.000000
   34        5.223104   1.000000
   35        5.233717   1.000000
   36        5.321607   1.000000
   37        5.363719   1.000000
   38        5.437521   1.000000
   39        5.512738   1.000000
   40        5.564519   1.000000
   41        5.569052   1.000000
   42        5.665266   1.000000
   43        5.711328   1.000000
   44        5.718147   1.000000
   45        5.798013   1.000000
   46        5.839435   1.000000
   47        5.985676   1.000000
   48        6.020672   1.000000
   49        6.048334   1.000000
   50        6.075727   1.000000
   51        6.176408   1.000000
   52        6.287348   0.999872
   53        6.302163   0.999717
   54        6.450034   0.912502
   55        6.489602   0.787200
   56        6.943221   0.000000
   57        7.116848   0.000000
   58        7.222908   0.000000
   59        7.230063   0.000000
   60        7.309375   0.000000
   61        7.408205   0.000000
   62        7.428428   0.000000
   63        7.474651   0.000000
   64        7.491451   0.000000
   65        7.626373   0.000000
   66        7.629738   0.000000
   67        7.673617   0.000000
   68        7.684392   0.000000
 
  0.0000000E+00  0.0000000E+00  0.3333333E+00  0.1666667E+00
    1        0.675051   1.000000
    2        2.055038   1.000000
    3        2.327184   1.000000
    4        2.728312   1.000000
    5        3.016724   1.000000
    6        3.156281   1.000000
    7        3.403513   1.000000
    8        3.440996   1.000000
    9        3.620071   1.000000
   10        3.635565   1.000000
   11        3.699546   1.000000
   12        3.750655   1.000000
   13        3.801366   1.000000
   14        3.876066   1.000000
   15        3.910085   1.000000
   16        3.954385   1.000000
   17        3.981203   1.000000
   18        4.012492   1.000000
   19        4.098970   1.000000
   20        4.130989   1.000000
   21        4.179385   1.000000
   22        4.315252   1.000000
   23        4.640165   1.000000
   24        4.682058   1.000000
   25        4.708174   1.000000
   26        4.794440   1.000000
   27        4.856898   1.000000
   28        4.915587   1.000000
   29        4.957004   1.000000
   30        5.029059   1.000000
   31        5.065241   1.000000
   32        5.109424   1.000000
   33        5.171694   1.000000
   34        5.293054   1.000000
   35        5.359586   1.000000
   36        5.379442   1.000000
   37        5.445875   1.000000
   38        5.466740   1.000000
   39        5.519976   1.000000
   40        5.611471   1.000000
   41        5.636923   1.000000
   42        5.717448   1.000000
   43        5.738035   1.000000
   44        5.830484   1.000000
   45        5.859792   1.000000
   46        6.006516   1.000000
   47        6.091900   1.000000
   48        6.123461   1.000000
   49        6.185056   1.000000
   50        6.230715   0.999996
   51        6.261861   0.999971
   52        6.347551   0.997489
   53        6.446206   0.920798
   54        6.459394   0.889516
   55        6.558204   0.431158
   56        6.706338   0.011654
   57        7.034230   0.000000
   58        7.076789   0.000000
   59        7.173820   0.000000
   60        7.192727   0.000000
   61        7.315429   0.000000
   62        7.374971   0.000000
   63        7.420751   0.000000
   64        7.488601   0.000000
   65        7.527531   0.000000
   66        7.593666   0.000000
   67        7.656488   0.000000
   68        7.738566   0.000000
 
  0.5000000E+00 -0.8642657E-17  0.3333333E+00  0.1666667E+00
    1        1.477130   1.000000
    2        1.740269   1.000000
    3        2.324996   1.000000
    4        2.624403   1.000000
    5        2.904499   1.000000
    6        2.956662   1.000000
    7        3.122193   1.000000
    8        3.174989   1.000000
    9        3.372634   1.000000
   10        3.506213   1.000000
   11        3.585533   1.000000
   12        3.616349   1.000000
   13        3.706955   1.000000
   14        3.772381   1.000000
   15        3.859098   1.000000
   16        3.899044   1.000000
   17        3.921758   1.000000
   18        4.120702   1.000000
   19        4.205772   1.000000
   20        4.371701   1.000000
   21        4.398094   1.000000
   22        4.572000   1.000000
   23        4.622341   1.000000
   24        4.675697   1.000000
   25        4.742024   1.000000
   26        4.786853   1.000000
   27        4.908121   1.000000
   28        4.963327   1.000000
   29        5.008038   1.000000
   30        5.071147   1.000000
   31        5.111669   1.000000
   32        5.229638   1.000000
   33        5.291027   1.000000
   34        5.316491   1.000000
   35        5.388611   1.000000
   36        5.436551   1.000000
   37        5.481988   1.000000
   38        5.597930   1.000000
   39        5.680199   1.000000
   40        5.695618   1.000000
   41        5.712562   1.000000
   42        5.817422   1.000000
   43        5.880259   1.000000
   44        5.934273   1.000000
   45        5.986781   1.000000
   46        6.044028   1.000000
   47        6.081451   1.000000
   48        6.089678   1.000000
   49        6.126641   1.000000
   50        6.182953   1.000000
   51        6.218753   0.999998
   52        6.250524   0.999985
   53        6.335599   0.998534
   54        6.370919   0.993342
   55        6.419223   0.963439
   56        6.439698   0.933516
   57        6.476396   0.837321
   58        7.080043   0.000000
   59        7.086178   0.000000
   60        7.271599   0.000000
   61        7.342676   0.000000
   62        7.416190   0.000000
   63        7.435675   0.000000
   64        7.581116   0.000000
   65        7.592443   0.000000
   66        7.660306   0.000000
   67        7.719928   0.000000
   68        7.780114   0.000000
 
  0.0000000E+00  0.5000000E+00  0.3333333E+00  0.1666667E+00
    1        0.994084   1.000000
    2        1.247937   1.000000
    3        2.923908   1.000000
    4        2.998700   1.000000
    5        3.138895   1.000000
    6        3.230703   1.000000
    7        3.282725   1.000000
    8        3.311033   1.000000
    9        3.433773   1.000000
   10        3.491478   1.000000
   11        3.522090   1.000000
   12        3.524758   1.000000
   13        3.752578   1.000000
   14        3.807761   1.000000
   15        3.918344   1.000000
   16        3.947169   1.000000
   17        3.968059   1.000000
   18        4.026874   1.000000
   19        4.136407   1.000000
   20        4.205570   1.000000
   21        4.281268   1.000000
   22        4.359872   1.000000
   23        4.592955   1.000000
   24        4.652935   1.000000
   25        4.739778   1.000000
   26        4.807028   1.000000
   27        4.857403   1.000000
   28        4.914188   1.000000
   29        4.939512   1.000000
   30        5.001659   1.000000
   31        5.038275   1.000000
   32        5.173403   1.000000
   33        5.301750   1.000000
   34        5.327686   1.000000
   35        5.414941   1.000000
   36        5.465143   1.000000
   37        5.497238   1.000000
   38        5.585197   1.000000
   39        5.699350   1.000000
   40        5.760508   1.000000
   41        5.785119   1.000000
   42        5.838901   1.000000
   43        5.888468   1.000000
   44        6.002902   1.000000
   45        6.028301   1.000000
   46        6.073394   1.000000
   47        6.093080   1.000000
   48        6.101397   1.000000
   49        6.125332   1.000000
   50        6.149765   1.000000
   51        6.205852   0.999999
   52        6.229316   0.999996
   53        6.264462   0.999966
   54        6.365440   0.994655
   55        6.518640   0.650282
   56        6.596659   0.236604
   57        6.638797   0.094561
   58        6.702287   0.013515
   59        7.139202   0.000000
   60        7.252771   0.000000
   61        7.334455   0.000000
   62        7.424397   0.000000
   63        7.450768   0.000000
   64        7.520242   0.000000
   65        7.606450   0.000000
   66        7.623545   0.000000
   67        7.716230   0.000000
   68        7.789974   0.000000
 
  0.5000000E+00  0.5000000E+00  0.3333333E+00  0.1666667E+00
    1        1.613018   1.000000
    2        1.886809   1.000000
    3        2.010171   1.000000
    4        2.267501   1.000000
    5        2.920931   1.000000
    6        3.046583   1.000000
    7        3.360787   1.000000
    8        3.439738   1.000000
    9        3.481658   1.000000
   10        3.589704   1.000000
   11        3.646885   1.000000
   12        3.674703   1.000000
   13        3.765161   1.000000
   14        3.799310   1.000000
   15        3.841643   1.000000
   16        3.848025   1.000000
   17        3.881516   1.000000
   18        3.994582   1.000000
   19        4.013829   1.000000
   20        4.052564   1.000000
   21        4.102435   1.000000
   22        4.123517   1.000000
   23        4.712792   1.000000
   24        4.753438   1.000000
   25        4.824309   1.000000
   26        4.886551   1.000000
   27        4.950276   1.000000
   28        5.057914   1.000000
   29        5.153149   1.000000
   30        5.215834   1.000000
   31        5.236531   1.000000
   32        5.284661   1.000000
   33        5.357623   1.000000
   34        5.365782   1.000000
   35        5.411340   1.000000
   36        5.446072   1.000000
   37        5.516903   1.000000
   38        5.556086   1.000000
   39        5.584899   1.000000
   40        5.611501   1.000000
   41        5.755850   1.000000
   42        5.773971   1.000000
   43        5.805884   1.000000
   44        5.942124   1.000000
   45        5.961850   1.000000
   46        6.024969   1.000000
   47        6.037868   1.000000
   48        6.124650   1.000000
   49        6.165009   1.000000
   50        6.265711   0.999963
   51        6.372106   0.993022
   52        6.394965   0.983624
   53        6.540013   0.533401
   54        6.574548   0.342899
   55        6.587291   0.279347
   56        6.689594   0.021099
   57        6.782467   0.000411
   58        6.831099   0.000028
   59        6.916321   0.000000
   60        6.977929   0.000000
   61        7.086143   0.000000
   62        7.154705   0.000000
   63        7.291514   0.000000
   64        7.366830   0.000000
   65        7.444256   0.000000
   66        7.467191   0.000000
   67        7.578192   0.000000
   68        7.700031   0.000000
