       N       E                     dE             d eps       ncg     rms          rms(c)
DAV:   1     0.642707812499E+03    0.64271E+03   -0.23010E+04  1088   0.110E+03
DAV:   2    -0.665404822441E+02   -0.70925E+03   -0.68582E+03  1088   0.339E+02
DAV:   3    -0.187601229593E+03   -0.12106E+03   -0.11407E+03  1840   0.149E+02
DAV:   4    -0.199731817573E+03   -0.12131E+02   -0.11534E+02  1744   0.626E+01
DAV:   5    -0.200429183299E+03   -0.69737E+00   -0.67734E+00  1760   0.115E+01    0.556E+01
DAV:   6    -0.224973504180E+03   -0.24544E+02   -0.48313E+02  2144   0.174E+02    0.735E+01
DAV:   7    -0.182505773877E+03    0.42468E+02   -0.47855E+02  2104   0.149E+02    0.309E+01
DAV:   8    -0.182314519558E+03    0.19125E+00   -0.13836E+02  2112   0.949E+01    0.291E+01
DAV:   9    -0.176036498824E+03    0.62780E+01   -0.67027E+01  2176   0.674E+01    0.164E+01
DAV:  10    -0.174951474126E+03    0.10850E+01   -0.13554E+01  2160   0.323E+01    0.979E+00
DAV:  11    -0.174588955845E+03    0.36252E+00   -0.30675E+00  1960   0.136E+01    0.759E+00
DAV:  12    -0.174796700219E+03   -0.20774E+00   -0.24086E+00  2152   0.116E+01    0.820E+00
DAV:  13    -0.174446555453E+03    0.35014E+00   -0.22488E+00  2144   0.121E+01    0.539E+00
DAV:  14    -0.174568286468E+03   -0.12173E+00   -0.29480E+00  2096   0.138E+01    0.669E+00
DAV:  15    -0.174415714271E+03    0.15257E+00   -0.11867E+00  2096   0.111E+01    0.395E+00
DAV:  16    -0.174318728817E+03    0.96985E-01   -0.38913E-01  2160   0.506E+00    0.158E+00
DAV:  17    -0.174318204903E+03    0.52391E-03   -0.62295E-02  1760   0.184E+00    0.144E+00
DAV:  18    -0.174311234551E+03    0.69704E-02   -0.26435E-02  2008   0.125E+00    0.859E-01
DAV:  19    -0.174310858999E+03    0.37555E-03   -0.25165E-02  1728   0.113E+00    0.724E-01
DAV:  20    -0.174307479722E+03    0.33793E-02   -0.17473E-02  1976   0.100E+00    0.301E-01
DAV:  21    -0.174307341146E+03    0.13858E-03   -0.35126E-03  1768   0.457E-01    0.222E-01
DAV:  22    -0.174307147142E+03    0.19400E-03   -0.11405E-03  1816   0.279E-01    0.145E-01
DAV:  23    -0.174307174176E+03   -0.27034E-04   -0.74891E-04  1816   0.202E-01    0.134E-01
DAV:  24    -0.174307060521E+03    0.11365E-03   -0.67460E-04  1960   0.214E-01    0.553E-02
DAV:  25    -0.174307055364E+03    0.51576E-05   -0.22472E-04  2008   0.113E-01    0.377E-02
DAV:  26    -0.174307041173E+03    0.14191E-04   -0.47485E-05  1088   0.699E-02    0.177E-02
DAV:  27    -0.174307040850E+03    0.32219E-06   -0.15142E-05   688   0.297E-02
   1 F= -.17430704E+03 E0= -.17424849E+03  d E =-.174307E+03
       N       E                     dE             d eps       ncg     rms          rms(c)
DAV:   1    -0.176913127175E+03   -0.26061E+01   -0.24748E+02  1088   0.561E+01    0.919E+00
DAV:   2    -0.192383017635E+03   -0.15470E+02   -0.11673E+02  2160   0.919E+01    0.381E+01
DAV:   3    -0.177049007448E+03    0.15334E+02   -0.65646E+01  2144   0.679E+01    0.928E+00
DAV:   4    -0.176820059801E+03    0.22895E+00   -0.98372E+00  1808   0.214E+01    0.433E+00
DAV:   5    -0.176864026692E+03   -0.43967E-01   -0.13656E+00  1792   0.111E+01    0.466E+00
DAV:   6    -0.176779368306E+03    0.84658E-01   -0.87119E-01  1808   0.975E+00    0.323E+00
DAV:   7    -0.176878609829E+03   -0.99242E-01   -0.13007E+00  2176   0.917E+00    0.445E+00
DAV:   8    -0.176773730092E+03    0.10488E+00   -0.11827E+00  2176   0.882E+00    0.319E+00
DAV:   9    -0.176723030363E+03    0.50700E-01   -0.31407E-01  2176   0.510E+00    0.125E+00
DAV:  10    -0.176721756377E+03    0.12740E-02   -0.10333E-01  1808   0.251E+00    0.986E-01
DAV:  11    -0.176712138710E+03    0.96177E-02   -0.72003E-02  1864   0.211E+00    0.280E-01
DAV:  12    -0.176713752395E+03   -0.16137E-02   -0.20742E-02  1744   0.108E+00    0.396E-01
DAV:  13    -0.176712017886E+03    0.17345E-02   -0.10230E-02  1920   0.786E-01    0.915E-02
DAV:  14    -0.176712229941E+03   -0.21205E-03   -0.22716E-03  2152   0.375E-01    0.181E-01
DAV:  15    -0.176712066301E+03    0.16364E-03   -0.12122E-03  2096   0.336E-01    0.911E-02
DAV:  16    -0.176712020966E+03    0.45335E-04   -0.32869E-04  2136   0.158E-01    0.495E-02
DAV:  17    -0.176712004311E+03    0.16654E-04   -0.94944E-05  1528   0.683E-02    0.205E-02
DAV:  18    -0.176712001858E+03    0.24535E-05   -0.32773E-05   944   0.521E-02
   2 F= -.17671200E+03 E0= -.17665280E+03  d E =-.240496E+01
       N       E                     dE             d eps       ncg     rms          rms(c)
DAV:   1    -0.177314726292E+03   -0.60272E+00   -0.12639E+02  1088   0.390E+01    0.561E+00
DAV:   2    -0.182995015360E+03   -0.56803E+01   -0.41366E+01  2176   0.539E+01    0.258E+01
DAV:   3    -0.177434458524E+03    0.55606E+01   -0.22933E+01  2176   0.451E+01    0.525E+00
DAV:   4    -0.177354821537E+03    0.79637E-01   -0.30531E+00  1864   0.132E+01    0.244E+00
DAV:   5    -0.177387881952E+03   -0.33060E-01   -0.63166E-01  1928   0.780E+00    0.350E+00
DAV:   6    -0.177321236773E+03    0.66645E-01   -0.56930E-01  1952   0.788E+00    0.207E+00
DAV:   7    -0.177354725528E+03   -0.33489E-01   -0.53893E-01  2160   0.626E+00    0.267E+00
DAV:   8    -0.177298898027E+03    0.55828E-01   -0.36917E-01  2160   0.505E+00    0.129E+00
DAV:   9    -0.177290418788E+03    0.84792E-02   -0.59704E-02  2064   0.243E+00    0.497E-01
DAV:  10    -0.177290631130E+03   -0.21234E-03   -0.17380E-02  2128   0.118E+00    0.394E-01
DAV:  11    -0.177289054953E+03    0.15762E-02   -0.13618E-02  1976   0.906E-01    0.151E-01
DAV:  12    -0.177289444209E+03   -0.38926E-03   -0.46400E-03  2144   0.547E-01    0.235E-01
DAV:  13    -0.177288942122E+03    0.50209E-03   -0.24921E-03  2168   0.411E-01    0.524E-02
DAV:  14    -0.177288949584E+03   -0.74627E-05   -0.40093E-04  2120   0.162E-01    0.599E-02
DAV:  15    -0.177288925705E+03    0.23880E-04   -0.15223E-04  1896   0.104E-01    0.167E-02
DAV:  16    -0.177288925048E+03    0.65689E-06   -0.42036E-05  1120   0.522E-02
   3 F= -.17728893E+03 E0= -.17722864E+03  d E =-.298188E+01
       N       E                     dE             d eps       ncg     rms          rms(c)
DAV:   1    -0.178481152994E+03   -0.11922E+01   -0.11287E+02  1088   0.426E+01    0.108E+01
DAV:   2    -0.196034923738E+03   -0.17554E+02   -0.95543E+01  2080   0.101E+02    0.488E+01
DAV:   3    -0.178137020603E+03    0.17898E+02   -0.57372E+01  2048   0.675E+01    0.909E+00
DAV:   4    -0.178292564484E+03   -0.15554E+00   -0.11142E+01  2072   0.228E+01    0.523E+00
DAV:   5    -0.178133728712E+03    0.15884E+00   -0.23556E+00  1992   0.125E+01    0.382E+00
DAV:   6    -0.178160622215E+03   -0.26894E-01   -0.11005E+00  2160   0.914E+00    0.435E+00
DAV:   7    -0.178060135568E+03    0.10049E+00   -0.61866E-01  2056   0.873E+00    0.206E+00
DAV:   8    -0.178044793463E+03    0.15342E-01   -0.26624E-01  2168   0.422E+00    0.162E+00
DAV:   9    -0.178040356899E+03    0.44366E-02   -0.53011E-02  2064   0.234E+00    0.140E+00
DAV:  10    -0.178033184102E+03    0.71728E-02   -0.22133E-02  2048   0.164E+00    0.906E-01
DAV:  11    -0.178031718069E+03    0.14660E-02   -0.13788E-02  2168   0.909E-01    0.650E-01
DAV:  12    -0.178029553962E+03    0.21641E-02   -0.95144E-03  2120   0.744E-01    0.332E-01
DAV:  13    -0.178029517191E+03    0.36771E-04   -0.11981E-03  1808   0.266E-01    0.283E-01
DAV:  14    -0.178029445151E+03    0.72040E-04   -0.44195E-04  1888   0.177E-01    0.249E-01
DAV:  15    -0.178029350991E+03    0.94160E-04   -0.17509E-04  1928   0.997E-02    0.205E-01
DAV:  16    -0.178029161197E+03    0.18979E-03   -0.40708E-04  2176   0.157E-01    0.864E-02
DAV:  17    -0.178029146914E+03    0.14283E-04   -0.83560E-05  1504   0.633E-02    0.617E-02
DAV:  18    -0.178029132513E+03    0.14401E-04   -0.15836E-05   784   0.389E-02    0.438E-02
DAV:  19    -0.178029129965E+03    0.25476E-05   -0.20223E-05   720   0.191E-02
   4 F= -.17802913E+03 E0= -.17797639E+03  d E =-.740205E+00
       N       E                     dE             d eps       ncg     rms          rms(c)
DAV:   1    -0.178212595430E+03   -0.18346E+00   -0.25367E+01  1088   0.213E+01    0.501E+00
DAV:   2    -0.182536115407E+03   -0.43235E+01   -0.22544E+01  2112   0.483E+01    0.258E+01
DAV:   3    -0.178079770474E+03    0.44563E+01   -0.16046E+01  2160   0.414E+01    0.256E+00
DAV:   4    -0.178181533397E+03   -0.10176E+00   -0.19737E+00  1976   0.990E+00    0.257E+00
DAV:   5    -0.178162112992E+03    0.19420E-01   -0.36283E-01  1816   0.668E+00    0.212E+00
DAV:   6    -0.178141529739E+03    0.20583E-01   -0.21747E-01  1880   0.484E+00    0.138E+00
DAV:   7    -0.178136297827E+03    0.52319E-02   -0.10847E-01  2112   0.306E+00    0.991E-01
DAV:   8    -0.178127981536E+03    0.83163E-02   -0.68294E-02  2144   0.201E+00    0.401E-01
DAV:   9    -0.178128373925E+03   -0.39239E-03   -0.12420E-02  2160   0.985E-01    0.456E-01
DAV:  10    -0.178127124937E+03    0.12490E-02   -0.58110E-03  2160   0.759E-01    0.191E-01
DAV:  11    -0.178127264624E+03   -0.13969E-03   -0.35910E-03  2080   0.566E-01    0.224E-01
DAV:  12    -0.178127030417E+03    0.23421E-03   -0.19743E-03  2080   0.442E-01    0.115E-01
DAV:  13    -0.178126920387E+03    0.11003E-03   -0.73537E-04  2016   0.201E-01    0.489E-02
DAV:  14    -0.178126930122E+03   -0.97348E-05   -0.78941E-05  1376   0.690E-02
   5 F= -.17812693E+03 E0= -.17807475E+03  d E =-.838005E+00
       N       E                     dE             d eps       ncg     rms          rms(c)
DAV:   1    -0.179146848716E+03   -0.10199E+01   -0.99548E+01  1260   0.548E+01    0.133E+01
DAV:   2    -0.208017045635E+03   -0.28870E+02   -0.19174E+02  1944   0.127E+02    0.562E+01
DAV:   3    -0.177732326178E+03    0.30285E+02   -0.78843E+01  2016   0.586E+01    0.416E+00
DAV:   4    -0.178716779902E+03   -0.98445E+00   -0.10990E+01  1904   0.196E+01    0.639E+00
DAV:   5    -0.178467112034E+03    0.24967E+00   -0.26442E+00  2096   0.150E+01    0.334E+00
DAV:   6    -0.178489171745E+03   -0.22060E-01   -0.99353E-01  2112   0.968E+00    0.343E+00
DAV:   7    -0.178390391338E+03    0.98780E-01   -0.63463E-01  2112   0.679E+00    0.145E+00
DAV:   8    -0.178391632281E+03   -0.12409E-02   -0.25413E-01  1784   0.364E+00    0.142E+00
DAV:   9    -0.178377473641E+03    0.14159E-01   -0.84885E-02  2032   0.243E+00    0.702E-01
DAV:  10    -0.178375505037E+03    0.19686E-02   -0.17938E-02  2072   0.124E+00    0.503E-01
DAV:  11    -0.178375097967E+03    0.40707E-03   -0.91289E-03  1880   0.895E-01    0.474E-01
DAV:  12    -0.178373843100E+03    0.12549E-02   -0.64542E-03  1888   0.781E-01    0.250E-01
DAV:  13    -0.178373824998E+03    0.18102E-04   -0.26038E-03  1880   0.414E-01    0.177E-01
DAV:  14    -0.178373646248E+03    0.17875E-03   -0.15624E-03  1928   0.296E-01    0.524E-02
DAV:  15    -0.178373656921E+03   -0.10673E-04   -0.36577E-04  1736   0.139E-01    0.478E-02
DAV:  16    -0.178373647239E+03    0.96821E-05   -0.16688E-04  1640   0.104E-01    0.237E-02
DAV:  17    -0.178373649510E+03   -0.22710E-05   -0.29796E-05   856   0.505E-02
   6 F= -.17837365E+03 E0= -.17831568E+03  d E =-.246719E+00
       N       E                     dE             d eps       ncg     rms          rms(c)
DAV:   1    -0.178422904835E+03   -0.49258E-01   -0.39260E+00  1104   0.998E+00    0.286E+00
DAV:   2    -0.180110219620E+03   -0.16873E+01   -0.82384E+00  2144   0.284E+01    0.168E+01
DAV:   3    -0.178369916217E+03    0.17403E+01   -0.63379E+00  2160   0.250E+01    0.121E+00
DAV:   4    -0.178403061068E+03   -0.33145E-01   -0.52964E-01  1936   0.519E+00    0.131E+00
DAV:   5    -0.178397548100E+03    0.55130E-02   -0.77550E-02  1776   0.311E+00    0.993E-01
DAV:   6    -0.178393600383E+03    0.39477E-02   -0.40850E-02  1824   0.206E+00    0.630E-01
DAV:   7    -0.178391613331E+03    0.19871E-02   -0.18755E-02  2160   0.121E+00    0.300E-01
DAV:   8    -0.178390858990E+03    0.75434E-03   -0.85935E-03  2136   0.672E-01    0.151E-01
DAV:   9    -0.178391013965E+03   -0.15498E-03   -0.24345E-03  2112   0.477E-01    0.212E-01
DAV:  10    -0.178390713631E+03    0.30033E-03   -0.17380E-03  2096   0.401E-01    0.676E-02
DAV:  11    -0.178390750923E+03   -0.37293E-04   -0.70388E-04  2144   0.234E-01    0.856E-02
DAV:  12    -0.178390692765E+03    0.58159E-04   -0.34332E-04  2088   0.162E-01    0.247E-02
DAV:  13    -0.178390688800E+03    0.39651E-05   -0.30563E-05   904   0.507E-02
   7 F= -.17839069E+03 E0= -.17833352E+03  d E =-.263759E+00
       N       E                     dE             d eps       ncg     rms          rms(c)
DAV:   1    -0.178473804560E+03   -0.83112E-01   -0.53476E+00  1088   0.791E+00    0.799E-01
DAV:   2    -0.178552189708E+03   -0.78385E-01   -0.68084E-01  2136   0.663E+00    0.277E+00
DAV:   3    -0.178478158127E+03    0.74032E-01   -0.38163E-01  2168   0.544E+00    0.669E-01
DAV:   4    -0.178477924679E+03    0.23345E-03   -0.44720E-02  2072   0.186E+00    0.577E-01
DAV:   5    -0.178476591992E+03    0.13327E-02   -0.27792E-02  2040   0.163E+00    0.608E-01
DAV:   6    -0.178474169828E+03    0.24222E-02   -0.22461E-02  2040   0.144E+00    0.325E-01
DAV:   7    -0.178474622087E+03   -0.45226E-03   -0.10772E-02  2048   0.998E-01    0.391E-01
DAV:   8    -0.178473389758E+03    0.12323E-02   -0.62613E-03  2048   0.714E-01    0.922E-02
DAV:   9    -0.178473382233E+03    0.75251E-05   -0.81405E-04  2000   0.268E-01    0.806E-02
DAV:  10    -0.178473381344E+03    0.88936E-06   -0.41903E-04  1952   0.204E-01    0.678E-02
DAV:  11    -0.178473345202E+03    0.36142E-04   -0.33019E-04  1960   0.155E-01    0.258E-02
DAV:  12    -0.178473344128E+03    0.10735E-05   -0.44260E-05  1136   0.716E-02
   8 F= -.17847334E+03 E0= -.17841498E+03  d E =-.826553E-01
       N       E                     dE             d eps       ncg     rms          rms(c)
DAV:   1    -0.178588389074E+03   -0.11504E+00   -0.48176E+01  1088   0.238E+01    0.244E+00
DAV:   2    -0.179252921328E+03   -0.66453E+00   -0.60568E+00  2144   0.194E+01    0.801E+00
DAV:   3    -0.178626895046E+03    0.62603E+00   -0.32465E+00  2168   0.158E+01    0.203E+00
DAV:   4    -0.178630104267E+03   -0.32092E-02   -0.42878E-01  2072   0.583E+00    0.192E+00
DAV:   5    -0.178611310820E+03    0.18793E-01   -0.25525E-01  2016   0.493E+00    0.169E+00
DAV:   6    -0.178592544538E+03    0.18766E-01   -0.20242E-01  2048   0.422E+00    0.970E-01
DAV:   7    -0.178598272112E+03   -0.57276E-02   -0.10193E-01  2072   0.313E+00    0.129E+00
DAV:   8    -0.178585228139E+03    0.13044E-01   -0.63875E-02  2064   0.230E+00    0.289E-01
DAV:   9    -0.178585098223E+03    0.12992E-03   -0.76425E-03  1984   0.802E-01    0.222E-01
DAV:  10    -0.178584968687E+03    0.12954E-03   -0.25549E-03  1952   0.496E-01    0.134E-01
DAV:  11    -0.178584831119E+03    0.13757E-03   -0.20362E-03  2064   0.346E-01    0.677E-02
DAV:  12    -0.178584835729E+03   -0.46099E-05   -0.46074E-04  2144   0.185E-01    0.621E-02
DAV:  13    -0.178584796653E+03    0.39076E-04   -0.21782E-04  1968   0.119E-01    0.150E-02
DAV:  14    -0.178584800542E+03   -0.38896E-05   -0.59086E-05  1224   0.645E-02
   9 F= -.17858480E+03 E0= -.17852031E+03  d E =-.194112E+00
       N       E                     dE             d eps       ncg     rms          rms(c)
DAV:   1    -0.178671185671E+03   -0.86389E-01   -0.13431E+01  1088   0.130E+01    0.126E+00
DAV:   2    -0.178800405983E+03   -0.12922E+00   -0.11247E+00  2160   0.828E+00    0.394E+00
DAV:   3    -0.178684062077E+03    0.11634E+00   -0.58207E-01  2152   0.702E+00    0.104E+00
DAV:   4    -0.178687919333E+03   -0.38573E-02   -0.15613E-01  2168   0.331E+00    0.119E+00
DAV:   5    -0.178676231623E+03    0.11688E-01   -0.79486E-02  2128   0.273E+00    0.790E-01
DAV:   6    -0.178672732169E+03    0.34995E-02   -0.46654E-02  2128   0.213E+00    0.491E-01
DAV:   7    -0.178672065977E+03    0.66619E-03   -0.16926E-02  2064   0.123E+00    0.367E-01
DAV:   8    -0.178670755757E+03    0.13102E-02   -0.77720E-03  2072   0.739E-01    0.795E-02
DAV:   9    -0.178670851144E+03   -0.95387E-04   -0.13086E-03  2128   0.335E-01    0.132E-01
DAV:  10    -0.178670751533E+03    0.99611E-04   -0.63736E-04  2016   0.266E-01    0.614E-02
DAV:  11    -0.178670725916E+03    0.25617E-04   -0.24942E-04  2080   0.137E-01    0.272E-02
DAV:  12    -0.178670728110E+03   -0.21948E-05   -0.69435E-05  1440   0.769E-02
  10 F= -.17867073E+03 E0= -.17860536E+03  d E =-.859276E-01
       N       E                     dE             d eps       ncg     rms          rms(c)
DAV:   1    -0.178750886162E+03   -0.80160E-01   -0.70468E+01  1088   0.307E+01    0.276E+00
DAV:   2    -0.179266448702E+03   -0.51556E+00   -0.49240E+00  2120   0.174E+01    0.788E+00
DAV:   3    -0.178832388354E+03    0.43406E+00   -0.22296E+00  2152   0.139E+01    0.247E+00
DAV:   4    -0.178847814275E+03   -0.15426E-01   -0.78448E-01  2176   0.748E+00    0.263E+00
DAV:   5    -0.178777185602E+03    0.70629E-01   -0.40406E-01  2136   0.580E+00    0.147E+00
DAV:   6    -0.178773084978E+03    0.41006E-02   -0.22116E-01  2072   0.446E+00    0.138E+00
DAV:   7    -0.178764658848E+03    0.84261E-02   -0.91233E-02  2072   0.298E+00    0.759E-01
DAV:   8    -0.178758842639E+03    0.58162E-02   -0.39143E-02  2080   0.153E+00    0.169E-01
DAV:   9    -0.178759573405E+03   -0.73077E-03   -0.66541E-03  2064   0.773E-01    0.367E-01
DAV:  10    -0.178758775550E+03    0.79786E-03   -0.38040E-03  2048   0.642E-01    0.104E-01
DAV:  11    -0.178758712993E+03    0.62557E-04   -0.12482E-03  2104   0.271E-01    0.649E-02
DAV:  12    -0.178758695270E+03    0.17722E-04   -0.26745E-04  2048   0.141E-01    0.373E-02
DAV:  13    -0.178758683510E+03    0.11760E-04   -0.13494E-04  1632   0.850E-02    0.173E-02
DAV:  14    -0.178758686582E+03   -0.30716E-05   -0.38970E-05  1008   0.604E-02
  11 F= -.17875869E+03 E0= -.17869883E+03  d E =-.173886E+00
       N       E                     dE             d eps       ncg     rms          rms(c)
DAV:   1    -0.178912671546E+03   -0.15399E+00   -0.21760E+01  1088   0.202E+01    0.523E+00
DAV:   2    -0.183983539792E+03   -0.50709E+01   -0.24786E+01  2112   0.506E+01    0.282E+01
DAV:   3    -0.178733535491E+03    0.52500E+01   -0.18652E+01  2176   0.430E+01    0.256E+00
DAV:   4    -0.178854954900E+03   -0.12142E+00   -0.21656E+00  1944   0.972E+00    0.265E+00
DAV:   5    -0.178819788024E+03    0.35167E-01   -0.34931E-01  1856   0.578E+00    0.191E+00
DAV:   6    -0.178817321731E+03    0.24663E-02   -0.19325E-01  1920   0.442E+00    0.175E+00
DAV:   7    -0.178798844017E+03    0.18478E-01   -0.12029E-01  2024   0.340E+00    0.731E-01
DAV:   8    -0.178795110070E+03    0.37339E-02   -0.51885E-02  2112   0.161E+00    0.425E-01
DAV:   9    -0.178794201095E+03    0.90897E-03   -0.59411E-03  2032   0.665E-01    0.216E-01
DAV:  10    -0.178794210894E+03   -0.97989E-05   -0.47982E-03  2072   0.517E-01    0.202E-01
DAV:  11    -0.178794202818E+03    0.80758E-05   -0.22714E-03  2088   0.493E-01    0.220E-01
DAV:  12    -0.178793910536E+03    0.29228E-03   -0.12745E-03  2048   0.355E-01    0.795E-02
DAV:  13    -0.178793927365E+03   -0.16829E-04   -0.25031E-04  2096   0.123E-01    0.839E-02
DAV:  14    -0.178793904052E+03    0.23313E-04   -0.65374E-05  1328   0.720E-02    0.645E-02
DAV:  15    -0.178793891892E+03    0.12160E-04   -0.52615E-05  1088   0.570E-02    0.469E-02
DAV:  16    -0.178793877306E+03    0.14586E-04   -0.31378E-05   816   0.527E-02    0.205E-02
DAV:  17    -0.178793876290E+03    0.10158E-05   -0.20496E-05   832   0.261E-02
  12 F= -.17879388E+03 E0= -.17873796E+03  d E =-.351897E-01
       N       E                     dE             d eps       ncg     rms          rms(c)
DAV:   1    -0.178799019976E+03   -0.51427E-02   -0.67542E-01  1096   0.375E+00    0.931E-01
DAV:   2    -0.178978210926E+03   -0.17919E+00   -0.87927E-01  2152   0.917E+00    0.541E+00
DAV:   3    -0.178794587900E+03    0.18362E+00   -0.63763E-01  2136   0.764E+00    0.385E-01
DAV:   4    -0.178797433414E+03   -0.28455E-02   -0.41435E-02  1792   0.163E+00    0.519E-01
DAV:   5    -0.178796318604E+03    0.11148E-02   -0.11789E-02  1744   0.131E+00    0.291E-01
DAV:   6    -0.178795769010E+03    0.54959E-03   -0.81815E-03  1968   0.728E-01    0.167E-01
DAV:   7    -0.178795636681E+03    0.13233E-03   -0.23883E-03  2072   0.384E-01    0.116E-01
DAV:   8    -0.178795493192E+03    0.14349E-03   -0.10730E-03  1984   0.251E-01    0.387E-02
DAV:   9    -0.178795535507E+03   -0.42315E-04   -0.41597E-04  2064   0.183E-01    0.902E-02
DAV:  10    -0.178795477002E+03    0.58505E-04   -0.27225E-04  1984   0.163E-01    0.247E-02
DAV:  11    -0.178795472033E+03    0.49688E-05   -0.29350E-05   928   0.625E-02
  13 F= -.17879547E+03 E0= -.17873886E+03  d E =-.367855E-01
       N       E                     dE             d eps       ncg     rms          rms(c)
DAV:   1    -0.178857645183E+03   -0.62168E-01   -0.17410E+01  1096   0.175E+01    0.328E+00
DAV:   2    -0.180821104416E+03   -0.19635E+01   -0.10801E+01  2096   0.309E+01    0.176E+01
DAV:   3    -0.178823085077E+03    0.19980E+01   -0.72674E+00  2112   0.240E+01    0.167E+00
DAV:   4    -0.178852064976E+03   -0.28980E-01   -0.60044E-01  1960   0.572E+00    0.153E+00
DAV:   5    -0.178841303446E+03    0.10762E-01   -0.16244E-01  1920   0.465E+00    0.141E+00
DAV:   6    -0.178830298396E+03    0.11005E-01   -0.12409E-01  1984   0.331E+00    0.733E-01
DAV:   7    -0.178827604742E+03    0.26937E-02   -0.38797E-02  2120   0.162E+00    0.492E-01
DAV:   8    -0.178825342994E+03    0.22617E-02   -0.21832E-02  2088   0.106E+00    0.216E-01
DAV:   9    -0.178826078252E+03   -0.73526E-03   -0.67283E-03  2080   0.794E-01    0.413E-01
DAV:  10    -0.178824964599E+03    0.11137E-02   -0.43429E-03  2080   0.676E-01    0.612E-02
DAV:  11    -0.178824990877E+03   -0.26278E-04   -0.83857E-04  1992   0.222E-01    0.688E-02
DAV:  12    -0.178824951191E+03    0.39685E-04   -0.31595E-04  1840   0.146E-01    0.228E-02
DAV:  13    -0.178824950668E+03    0.52303E-06   -0.56847E-05  1264   0.581E-02
  14 F= -.17882495E+03 E0= -.17877057E+03  d E =-.294786E-01
       N       E                     dE             d eps       ncg     rms          rms(c)
DAV:   1    -0.178827592579E+03   -0.26414E-02   -0.57115E-01  1088   0.302E+00    0.590E-01
DAV:   2    -0.178891065836E+03   -0.63473E-01   -0.32953E-01  2128   0.550E+00    0.325E+00
DAV:   3    -0.178826530318E+03    0.64536E-01   -0.24158E-01  2128   0.474E+00    0.294E-01
DAV:   4    -0.178827174754E+03   -0.64444E-03   -0.17068E-02  1856   0.107E+00    0.293E-01
DAV:   5    -0.178827255045E+03   -0.80291E-04   -0.70066E-03  1792   0.940E-01    0.324E-01
DAV:   6    -0.178826506092E+03    0.74895E-03   -0.50745E-03  1800   0.671E-01    0.105E-01
DAV:   7    -0.178826513647E+03   -0.75554E-05   -0.12975E-03  2080   0.283E-01    0.924E-02
DAV:   8    -0.178826413567E+03    0.10008E-03   -0.77325E-04  1784   0.195E-01    0.316E-02
DAV:   9    -0.178826432158E+03   -0.18592E-04   -0.22188E-04  1912   0.122E-01    0.474E-02
DAV:  10    -0.178826408439E+03    0.23719E-04   -0.11993E-04  1656   0.105E-01    0.165E-02
DAV:  11    -0.178826407821E+03    0.61789E-06   -0.16347E-05   696   0.483E-02
  15 F= -.17882641E+03 E0= -.17877179E+03  d E =-.309358E-01
       N       E                     dE             d eps       ncg     rms          rms(c)
DAV:   1    -0.178840525528E+03   -0.14117E-01   -0.14882E+00  1088   0.500E+00    0.109E+00
DAV:   2    -0.179074281990E+03   -0.23376E+00   -0.11509E+00  2160   0.105E+01    0.624E+00
DAV:   3    -0.178834889647E+03    0.23939E+00   -0.85882E-01  2168   0.912E+00    0.528E-01
DAV:   4    -0.178838830189E+03   -0.39405E-02   -0.70730E-02  1928   0.218E+00    0.687E-01
DAV:   5    -0.178837278677E+03    0.15515E-02   -0.24305E-02  1888   0.169E+00    0.465E-01
DAV:   6    -0.178835621913E+03    0.16568E-02   -0.20276E-02  2064   0.114E+00    0.253E-01
DAV:   7    -0.178835346420E+03    0.27549E-03   -0.42921E-03  2144   0.536E-01    0.172E-01
DAV:   8    -0.178835105716E+03    0.24070E-03   -0.17159E-03  2152   0.387E-01    0.786E-02
DAV:   9    -0.178835161500E+03   -0.55785E-04   -0.80773E-04  2048   0.271E-01    0.111E-01
DAV:  10    -0.178835066317E+03    0.95183E-04   -0.48379E-04  2048   0.211E-01    0.275E-02
DAV:  11    -0.178835061346E+03    0.49714E-05   -0.84818E-05  1448   0.774E-02
  16 F= -.17883506E+03 E0= -.17878030E+03  d E =-.865352E-02
       N       E                     dE             d eps       ncg     rms          rms(c)
DAV:   1    -0.178837008251E+03   -0.19419E-02   -0.30736E-01  1088   0.229E+00    0.497E-01
DAV:   2    -0.178885931576E+03   -0.48923E-01   -0.24181E-01  2160   0.478E+00    0.285E+00
DAV:   3    -0.178835945635E+03    0.49986E-01   -0.17790E-01  2160   0.412E+00    0.248E-01
DAV:   4    -0.178836662596E+03   -0.71696E-03   -0.13660E-02  1896   0.987E-01    0.309E-01
DAV:   5    -0.178836372608E+03    0.28999E-03   -0.49832E-03  1848   0.780E-01    0.207E-01
DAV:   6    -0.178836025462E+03    0.34715E-03   -0.40428E-03  1984   0.515E-01    0.107E-01
DAV:   7    -0.178835986595E+03    0.38867E-04   -0.83670E-04  2144   0.243E-01    0.849E-02
DAV:   8    -0.178835930964E+03    0.55631E-04   -0.35511E-04  2088   0.184E-01    0.356E-02
DAV:   9    -0.178835942690E+03   -0.11726E-04   -0.17201E-04  1936   0.125E-01    0.491E-02
DAV:  10    -0.178835922650E+03    0.20040E-04   -0.96412E-05  1760   0.951E-02    0.112E-02
DAV:  11    -0.178835921342E+03    0.13075E-05   -0.10263E-05   656   0.343E-02
  17 F= -.17883592E+03 E0= -.17878111E+03  d E =-.951352E-02
       N       E                     dE             d eps       ncg     rms          rms(c)
DAV:   1    -0.178860694668E+03   -0.24772E-01   -0.16864E+00  1200   0.722E+00    0.205E+00
DAV:   2    -0.179680491575E+03   -0.81980E+00   -0.41330E+00  2160   0.191E+01    0.116E+01
DAV:   3    -0.178833407844E+03    0.84708E+00   -0.29627E+00  2136   0.159E+01    0.975E-01
DAV:   4    -0.178848154704E+03   -0.14747E-01   -0.23203E-01  1960   0.378E+00    0.121E+00
DAV:   5    -0.178842935288E+03    0.52194E-02   -0.71830E-02  1888   0.307E+00    0.814E-01
DAV:   6    -0.178837738552E+03    0.51967E-02   -0.42447E-02  1968   0.171E+00    0.256E-01
DAV:   7    -0.178837742678E+03   -0.41262E-05   -0.80352E-03  1840   0.681E-01    0.227E-01
DAV:   8    -0.178837217865E+03    0.52481E-03   -0.37885E-03  2088   0.510E-01    0.880E-02
DAV:   9    -0.178837410879E+03   -0.19301E-03   -0.16071E-03  2016   0.397E-01    0.199E-01
DAV:  10    -0.178837147332E+03    0.26355E-03   -0.10914E-03  2000   0.339E-01    0.435E-02
DAV:  11    -0.178837140097E+03    0.72345E-05   -0.19986E-04  1936   0.114E-01    0.283E-02
DAV:  12    -0.178837134536E+03    0.55608E-05   -0.29417E-05   896   0.619E-02
  18 F= -.17883713E+03 E0= -.17878114E+03  d E =-.121319E-02
       N       E                     dE             d eps       ncg     rms          rms(c)
DAV:   1    -0.178842944695E+03   -0.58046E-02   -0.30705E-01  1208   0.304E+00    0.879E-01
DAV:   2    -0.178991100524E+03   -0.14816E+00   -0.70513E-01  2160   0.811E+00    0.504E+00
DAV:   3    -0.178837994673E+03    0.15311E+00   -0.57156E-01  2160   0.728E+00    0.399E-01
DAV:   4    -0.178840265583E+03   -0.22709E-02   -0.40286E-02  1816   0.167E+00    0.493E-01
DAV:   5    -0.178839704024E+03    0.56156E-03   -0.13580E-02  1792   0.131E+00    0.349E-01
DAV:   6    -0.178838749695E+03    0.95433E-03   -0.67497E-03  1800   0.712E-01    0.145E-01
DAV:   7    -0.178838717957E+03    0.31738E-04   -0.13582E-03  1984   0.309E-01    0.986E-02
DAV:   8    -0.178838614518E+03    0.10344E-03   -0.67764E-04  1944   0.203E-01    0.323E-02
DAV:   9    -0.178838650311E+03   -0.35793E-04   -0.32329E-04  2088   0.156E-01    0.761E-02
DAV:  10    -0.178838612282E+03    0.38030E-04   -0.19845E-04  1960   0.144E-01    0.288E-02
DAV:  11    -0.178838605799E+03    0.64824E-05   -0.26656E-05   928   0.627E-02
  19 F= -.17883861E+03 E0= -.17878310E+03  d E =-.268446E-02
       N       E                     dE             d eps       ncg     rms          rms(c)
DAV:   1    -0.178841085836E+03   -0.24736E-02   -0.34822E-01  1088   0.221E+00    0.339E-01
DAV:   2    -0.178858308802E+03   -0.17223E-01   -0.10355E-01  2128   0.299E+00    0.162E+00
DAV:   3    -0.178841064548E+03    0.17244E-01   -0.69692E-02  2128   0.253E+00    0.251E-01
DAV:   4    -0.178841039564E+03    0.24984E-04   -0.69708E-03  2048   0.705E-01    0.188E-01
DAV:   5    -0.178841180520E+03   -0.14096E-03   -0.36249E-03  1984   0.651E-01    0.268E-01
DAV:   6    -0.178840678395E+03    0.50212E-03   -0.35560E-03  1992   0.555E-01    0.795E-02
DAV:   7    -0.178840672780E+03    0.56155E-05   -0.74677E-04  2152   0.217E-01    0.674E-02
DAV:   8    -0.178840622749E+03    0.50030E-04   -0.37193E-04  1848   0.136E-01    0.197E-02
DAV:   9    -0.178840629303E+03   -0.65540E-05   -0.68381E-05  1400   0.809E-02
  20 F= -.17884063E+03 E0= -.17878475E+03  d E =-.202350E-02
       N       E                     dE             d eps       ncg     rms          rms(c)
DAV:   1    -0.178841310197E+03   -0.68745E-03   -0.18357E-01  1088   0.161E+00    0.251E-01
DAV:   2    -0.178850861507E+03   -0.95513E-02   -0.57068E-02  2128   0.222E+00    0.121E+00
DAV:   3    -0.178841295765E+03    0.95657E-02   -0.38412E-02  2128   0.187E+00    0.184E-01
DAV:   4    -0.178841280084E+03    0.15681E-04   -0.37409E-03  2016   0.518E-01    0.137E-01
DAV:   5    -0.178841359255E+03   -0.79172E-04   -0.19382E-03  1984   0.478E-01    0.195E-01
DAV:   6    -0.178841093251E+03    0.26600E-03   -0.18857E-03  1968   0.406E-01    0.589E-02
DAV:   7    -0.178841096229E+03   -0.29772E-05   -0.43894E-04  2120   0.169E-01    0.574E-02
DAV:   8    -0.178841064431E+03    0.31798E-04   -0.23438E-04  1984   0.114E-01    0.192E-02
DAV:   9    -0.178841066118E+03   -0.16875E-05   -0.25231E-05   976   0.683E-02
  21 F= -.17884107E+03 E0= -.17878496E+03  d E =-.246032E-02
       N       E                     dE             d eps       ncg     rms          rms(c)
DAV:   1    -0.178843655989E+03   -0.25916E-02   -0.32242E-01  1144   0.270E+00    0.707E-01
DAV:   2    -0.178950931006E+03   -0.10728E+00   -0.52565E-01  2136   0.691E+00    0.423E+00
DAV:   3    -0.178840972076E+03    0.10996E+00   -0.38460E-01  2136   0.586E+00    0.306E-01
DAV:   4    -0.178842620227E+03   -0.16482E-02   -0.23447E-02  1792   0.129E+00    0.412E-01
DAV:   5    -0.178841873658E+03    0.74657E-03   -0.66646E-03  1776   0.937E-01    0.180E-01
DAV:   6    -0.178841653503E+03    0.22016E-03   -0.41362E-03  1800   0.464E-01    0.123E-01
DAV:   7    -0.178841599660E+03    0.53843E-04   -0.10974E-03  2128   0.289E-01    0.890E-02
DAV:   8    -0.178841520284E+03    0.79376E-04   -0.54795E-04  2168   0.196E-01    0.357E-02
DAV:   9    -0.178841545089E+03   -0.24805E-04   -0.21982E-04  1952   0.152E-01    0.731E-02
DAV:  10    -0.178841507136E+03    0.37953E-04   -0.15157E-04  1944   0.129E-01    0.142E-02
DAV:  11    -0.178841505199E+03    0.19369E-05   -0.14605E-05   792   0.401E-02
  22 F= -.17884151E+03 E0= -.17878514E+03  d E =-.439081E-03
       N       E                     dE             d eps       ncg     rms          rms(c)
DAV:   1    -0.178841732383E+03   -0.22525E-03   -0.26798E-02  1144   0.774E-01    0.204E-01
DAV:   2    -0.178850765510E+03   -0.90331E-02   -0.42910E-02  2160   0.200E+00    0.123E+00
DAV:   3    -0.178841515793E+03    0.92497E-02   -0.32903E-02  2160   0.174E+00    0.888E-02
DAV:   4    -0.178841652149E+03   -0.13636E-03   -0.19825E-03  1760   0.375E-01    0.118E-01
DAV:   5    -0.178841593023E+03    0.59126E-04   -0.54036E-04  1744   0.259E-01    0.486E-02
DAV:   6    -0.178841580491E+03    0.12533E-04   -0.32653E-04  1688   0.129E-01    0.398E-02
DAV:   7    -0.178841572640E+03    0.78506E-05   -0.84554E-05  1472   0.854E-02
  23 F= -.17884157E+03 E0= -.17878527E+03  d E =-.506522E-03
       N       E                     dE             d eps       ncg     rms          rms(c)
DAV:   1    -0.178842593370E+03   -0.10129E-02   -0.20078E-01  1088   0.178E+00    0.342E-01
DAV:   2    -0.178864900392E+03   -0.22307E-01   -0.11527E-01  2128   0.326E+00    0.192E+00
DAV:   3    -0.178842386361E+03    0.22514E-01   -0.83609E-02  2128   0.278E+00    0.190E-01
DAV:   4    -0.178842491643E+03   -0.10528E-03   -0.54363E-03  1832   0.607E-01    0.148E-01
DAV:   5    -0.178842567671E+03   -0.76028E-04   -0.19750E-03  1792   0.501E-01    0.172E-01
DAV:   6    -0.178842338591E+03    0.22908E-03   -0.14191E-03  1800   0.371E-01    0.538E-02
DAV:   7    -0.178842357948E+03   -0.19357E-04   -0.44784E-04  2056   0.170E-01    0.609E-02
DAV:   8    -0.178842313818E+03    0.44130E-04   -0.26371E-04  2024   0.134E-01    0.211E-02
DAV:   9    -0.178842318324E+03   -0.45063E-05   -0.59189E-05  1384   0.793E-02
  24 F= -.17884232E+03 E0= -.17878620E+03  d E =-.745684E-03
       N       E                     dE             d eps       ncg     rms          rms(c)
DAV:   1    -0.178842360708E+03   -0.46890E-04   -0.72722E-03  1092   0.353E-01    0.695E-02
DAV:   2    -0.178843282910E+03   -0.92220E-03   -0.47894E-03  2112   0.670E-01    0.387E-01
DAV:   3    -0.178842356230E+03    0.92668E-03   -0.34286E-03  2104   0.564E-01    0.420E-02
DAV:   4    -0.178842356899E+03   -0.66919E-06   -0.22955E-04  1768   0.123E-01    0.286E-02
DAV:   5    -0.178842359767E+03   -0.28678E-05   -0.64520E-05  1264   0.988E-02
  25 F= -.17884236E+03 E0= -.17878627E+03  d E =-.787127E-03
       N       E                     dE             d eps       ncg     rms          rms(c)
DAV:   1    -0.178842385883E+03   -0.28983E-04   -0.28754E-02  1088   0.677E-01    0.133E-01
DAV:   2    -0.178845755699E+03   -0.33698E-02   -0.17420E-02  2144   0.127E+00    0.744E-01
DAV:   3    -0.178842347410E+03    0.34083E-02   -0.12624E-02  2136   0.108E+00    0.740E-02
DAV:   4    -0.178842365586E+03   -0.18176E-04   -0.78737E-04  1792   0.230E-01    0.584E-02
DAV:   5    -0.178842378883E+03   -0.13297E-04   -0.31310E-04  1768   0.201E-01    0.677E-02
DAV:   6    -0.178842341952E+03    0.36931E-04   -0.23205E-04  1784   0.147E-01    0.198E-02
DAV:   7    -0.178842342276E+03   -0.32324E-06   -0.42354E-05  1024   0.657E-02
  26 F= -.17884234E+03 E0= -.17878632E+03  d E =-.769636E-03
       N       E                     dE             d eps       ncg     rms          rms(c)
DAV:   1    -0.178842375456E+03   -0.33503E-04   -0.66710E-03  1088   0.329E-01    0.657E-02
DAV:   2    -0.178843237429E+03   -0.86197E-03   -0.44928E-03  2128   0.643E-01    0.376E-01
DAV:   3    -0.178842365790E+03    0.87164E-03   -0.32425E-03  2128   0.544E-01    0.384E-02
DAV:   4    -0.178842366098E+03   -0.30741E-06   -0.19609E-04  1712   0.115E-01    0.246E-02
DAV:   5    -0.178842367992E+03   -0.18948E-05   -0.54076E-05  1208   0.910E-02
  27 F= -.17884237E+03 E0= -.17878632E+03  d E =-.795352E-03
       N       E                     dE             d eps       ncg     rms          rms(c)
DAV:   1    -0.178842368230E+03   -0.21324E-05   -0.19466E-03  1096   0.185E-01    0.371E-02
DAV:   2    -0.178842628787E+03   -0.26056E-03   -0.13857E-03  2144   0.353E-01    0.207E-01
DAV:   3    -0.178842361897E+03    0.26689E-03   -0.10033E-03  2136   0.302E-01    0.218E-02
DAV:   4    -0.178842362196E+03   -0.29893E-06   -0.50712E-05  1208   0.622E-02
  28 F= -.17884236E+03 E0= -.17878630E+03  d E =-.789556E-03
       N       E                     dE             d eps       ncg     rms          rms(c)
DAV:   1    -0.178843078885E+03   -0.71699E-03   -0.18829E-01  1088   0.168E+00    0.330E-01
DAV:   2    -0.178866166435E+03   -0.23088E-01   -0.11437E-01  2152   0.326E+00    0.195E+00
DAV:   3    -0.178842733631E+03    0.23433E-01   -0.82331E-02  2160   0.275E+00    0.160E-01
DAV:   4    -0.178842989060E+03   -0.25543E-03   -0.50518E-03  1768   0.584E-01    0.166E-01
DAV:   5    -0.178842896687E+03    0.92373E-04   -0.15271E-03  1776   0.445E-01    0.110E-01
DAV:   6    -0.178842809766E+03    0.86921E-04   -0.13444E-03  1952   0.287E-01    0.697E-02
DAV:   7    -0.178842777210E+03    0.32556E-04   -0.40041E-04  2152   0.150E-01    0.461E-02
DAV:   8    -0.178842759729E+03    0.17481E-04   -0.15706E-04  1928   0.998E-02    0.208E-02
DAV:   9    -0.178842766713E+03   -0.69841E-05   -0.62705E-05  1496   0.891E-02
  29 F= -.17884277E+03 E0= -.17878681E+03  d E =-.404517E-03
       N       E                     dE             d eps       ncg     rms          rms(c)
DAV:   1    -0.178842787069E+03   -0.27340E-04   -0.10687E-02  1088   0.409E-01    0.780E-02
DAV:   2    -0.178844017850E+03   -0.12308E-02   -0.62424E-03  2136   0.762E-01    0.448E-01
DAV:   3    -0.178842769179E+03    0.12487E-02   -0.44910E-03  2136   0.644E-01    0.410E-02
DAV:   4    -0.178842779853E+03   -0.10674E-04   -0.28485E-04  1760   0.140E-01    0.393E-02
DAV:   5    -0.178842775941E+03    0.39114E-05   -0.89291E-05  1424   0.112E-01
  30 F= -.17884278E+03 E0= -.17878685E+03  d E =-.413745E-03
       N       E                     dE             d eps       ncg     rms          rms(c)
DAV:   1    -0.178843380569E+03   -0.60072E-03   -0.19147E-01  1088   0.163E+00    0.276E-01
DAV:   2    -0.178858079278E+03   -0.14699E-01   -0.74770E-02  2160   0.260E+00    0.157E+00
DAV:   3    -0.178843270829E+03    0.14808E-01   -0.52978E-02  2160   0.221E+00    0.143E-01
DAV:   4    -0.178843428234E+03   -0.15740E-03   -0.38235E-03  1840   0.507E-01    0.149E-01
DAV:   5    -0.178843388949E+03    0.39285E-04   -0.14836E-03  1808   0.423E-01    0.129E-01
DAV:   6    -0.178843257989E+03    0.13096E-03   -0.12549E-03  1880   0.310E-01    0.568E-02
DAV:   7    -0.178843250152E+03    0.78366E-05   -0.32089E-04  2000   0.148E-01    0.446E-02
DAV:   8    -0.178843224893E+03    0.25259E-04   -0.17283E-04  1672   0.101E-01    0.160E-02
DAV:   9    -0.178843230664E+03   -0.57712E-05   -0.57185E-05  1216   0.743E-02
  31 F= -.17884323E+03 E0= -.17878762E+03  d E =-.454723E-03
       N       E                     dE             d eps       ncg     rms          rms(c)
DAV:   1    -0.178843257639E+03   -0.32746E-04   -0.12145E-02  1088   0.419E-01    0.750E-02
DAV:   2    -0.178844374286E+03   -0.11166E-02   -0.57404E-03  2160   0.720E-01    0.429E-01
DAV:   3    -0.178843251969E+03    0.11223E-02   -0.40161E-03  2152   0.608E-01    0.417E-02
DAV:   4    -0.178843258895E+03   -0.69257E-05   -0.27896E-04  1792   0.135E-01    0.347E-02
DAV:   5    -0.178843260223E+03   -0.13284E-05   -0.94561E-05  1520   0.111E-01
  32 F= -.17884326E+03 E0= -.17878773E+03  d E =-.484282E-03
       N       E                     dE             d eps       ncg     rms          rms(c)
DAV:   1    -0.178843243277E+03    0.15618E-04   -0.48260E-02  1088   0.819E-01    0.146E-01
DAV:   2    -0.178847460149E+03   -0.42169E-02   -0.21317E-02  2160   0.139E+00    0.837E-01
DAV:   3    -0.178843200569E+03    0.42596E-02   -0.15230E-02  2152   0.118E+00    0.759E-02
DAV:   4    -0.178843242569E+03   -0.42000E-04   -0.97066E-04  1776   0.259E-01    0.749E-02
DAV:   5    -0.178843233332E+03    0.92365E-05   -0.37986E-04  1744   0.218E-01    0.602E-02
DAV:   6    -0.178843203294E+03    0.30038E-04   -0.31896E-04  1872   0.152E-01    0.289E-02
DAV:   7    -0.178843199405E+03    0.38892E-05   -0.72601E-05  1304   0.759E-02
  33 F= -.17884320E+03 E0= -.17878782E+03  d E =-.423464E-03
       N       E                     dE             d eps       ncg     rms          rms(c)
DAV:   1    -0.178843272293E+03   -0.68999E-04   -0.22953E-02  1088   0.569E-01    0.101E-01
DAV:   2    -0.178845369910E+03   -0.20976E-02   -0.10616E-02  2160   0.980E-01    0.591E-01
DAV:   3    -0.178843252798E+03    0.21171E-02   -0.75214E-03  2152   0.828E-01    0.522E-02
DAV:   4    -0.178843268029E+03   -0.15231E-04   -0.47014E-04  1776   0.176E-01    0.455E-02
DAV:   5    -0.178843266683E+03    0.13467E-05   -0.16354E-04  1696   0.142E-01    0.420E-02
DAV:   6    -0.178843250390E+03    0.16293E-04   -0.11933E-04  1664   0.102E-01    0.164E-02
DAV:   7    -0.178843249529E+03    0.86094E-06   -0.21675E-05   808   0.549E-02
  34 F= -.17884325E+03 E0= -.17878778E+03  d E =-.473588E-03
       N       E                     dE             d eps       ncg     rms          rms(c)
DAV:   1    -0.178843252784E+03   -0.23944E-05   -0.10665E-03  1092   0.129E-01    0.208E-02
DAV:   2    -0.178843326001E+03   -0.73217E-04   -0.40965E-04  2144   0.186E-01    0.111E-01
DAV:   3    -0.178843250912E+03    0.75089E-04   -0.27174E-04  2112   0.158E-01    0.121E-02
DAV:   4    -0.178843250783E+03    0.12916E-06   -0.15807E-05   724   0.410E-02
  35 F= -.17884325E+03 E0= -.17878774E+03  d E =-.474842E-03
       N       E                     dE             d eps       ncg     rms          rms(c)
DAV:   1    -0.178843659862E+03   -0.40895E-03   -0.12930E-01  1088   0.146E+00    0.307E-01
DAV:   2    -0.178863055320E+03   -0.19395E-01   -0.95833E-02  2152   0.299E+00    0.180E+00
DAV:   3    -0.178843359012E+03    0.19696E-01   -0.69242E-02  2152   0.251E+00    0.149E-01
DAV:   4    -0.178843536391E+03   -0.17738E-03   -0.42341E-03  1760   0.539E-01    0.140E-01
DAV:   5    -0.178843511906E+03    0.24485E-04   -0.13217E-03  1744   0.413E-01    0.116E-01
DAV:   6    -0.178843409217E+03    0.10269E-03   -0.97016E-04  1848   0.271E-01    0.519E-02
DAV:   7    -0.178843399361E+03    0.98566E-05   -0.22502E-04  1976   0.132E-01    0.414E-02
DAV:   8    -0.178843380172E+03    0.19189E-04   -0.11013E-04  1640   0.990E-02    0.178E-02
DAV:   9    -0.178843384292E+03   -0.41202E-05   -0.42931E-05  1128   0.764E-02
  36 F= -.17884338E+03 E0= -.17878795E+03  d E =-.133509E-03
       N       E                     dE             d eps       ncg     rms          rms(c)
DAV:   1    -0.178843407566E+03   -0.27394E-04   -0.91753E-03  1088   0.388E-01    0.811E-02
DAV:   2    -0.178844786730E+03   -0.13792E-02   -0.68235E-03  2144   0.796E-01    0.478E-01
DAV:   3    -0.178843391489E+03    0.13952E-02   -0.49841E-03  2144   0.678E-01    0.402E-02
DAV:   4    -0.178843402268E+03   -0.10779E-04   -0.29258E-04  1784   0.141E-01    0.340E-02
DAV:   5    -0.178843402624E+03   -0.35635E-06   -0.78098E-05  1392   0.105E-01
  37 F= -.17884340E+03 E0= -.17878795E+03  d E =-.151841E-03
       N       E                     dE             d eps       ncg     rms          rms(c)
DAV:   1    -0.178843396769E+03    0.54992E-05   -0.15704E-03  1088   0.173E-01    0.414E-02
DAV:   2    -0.178843758655E+03   -0.36189E-03   -0.17849E-03  2144   0.404E-01    0.245E-01
DAV:   3    -0.178843389466E+03    0.36919E-03   -0.13568E-03  2136   0.349E-01    0.209E-02
DAV:   4    -0.178843392318E+03   -0.28525E-05   -0.61995E-05  1352   0.670E-02
  38 F= -.17884339E+03 E0= -.17878793E+03  d E =-.141535E-03
       N       E                     dE             d eps       ncg     rms          rms(c)
DAV:   1    -0.178843563902E+03   -0.17444E-03   -0.23360E-02  1088   0.661E-01    0.162E-01
DAV:   2    -0.178848961961E+03   -0.53981E-02   -0.26461E-02  2144   0.158E+00    0.943E-01
DAV:   3    -0.178843458182E+03    0.55038E-02   -0.19774E-02  2144   0.136E+00    0.795E-02
DAV:   4    -0.178843516143E+03   -0.57962E-04   -0.12565E-03  1768   0.291E-01    0.787E-02
DAV:   5    -0.178843511277E+03    0.48667E-05   -0.39669E-04  1760   0.224E-01    0.596E-02
DAV:   6    -0.178843482700E+03    0.28576E-04   -0.29588E-04  1808   0.136E-01    0.282E-02
DAV:   7    -0.178843480274E+03    0.24263E-05   -0.61050E-05  1312   0.639E-02
  39 F= -.17884348E+03 E0= -.17878805E+03  d E =-.879554E-04
