 vasp.5.4.4.18Apr17-6-g9f103f2a35 (build Jul 11 2019 11:52:51) complex          
  
 executed on             LinuxIFC date 2023.11.29  16:54:45
 running on    4 total cores
 distrk:  each k-point on    4 cores,    1 groups
 distr:  one band on NCORES_PER_BAND=   1 cores,    4 groups


--------------------------------------------------------------------------------------------------------


 INCAR:
 POTCAR:    PAW_PBE V 08Apr2002                   
 POTCAR:    PAW_PBE Fe 06Sep2000                  
 POTCAR:    PAW_PBE V 08Apr2002                   
   VRHFIN =V: p6 d4 s1                                                          
   LEXCH  = PE                                                                  
   EATOM  =   170.8679 eV,   12.5584 Ry                                         
                                                                                
   TITEL  = PAW_PBE V 08Apr2002                                                 
   LULTRA =        F    use ultrasoft PP ?                                      
   IUNSCR =        1    unscreen: 0-lin 1-nonlin 2-no                           
   RPACOR =    2.000    partial core radius                                     
   POMASS =   50.941; ZVAL   =    5.000    mass and valenz                      
   RCORE  =    2.700    outmost cutoff radius                                   
   RWIGS  =    2.500; RWIGS  =    1.323    wigner-seitz radius (au A)           
   ENMAX  =  192.543; ENMIN  =  144.408 eV                                      
   RCLOC  =    1.779    cutoff for local pot                                    
   LCOR   =        T    correct aug charges                                     
   LPAW   =        T    paw PP                                                  
   EAUG   =  358.662                                                            
   DEXC   =    0.000                                                            
   RMAX   =    2.768    core radius for proj-oper                               
   RAUG   =    1.300    factor for augmentation sphere                          
   RDEP   =    2.762    radius for radial grids                                 
   RDEPT  =    2.240    core radius for aug-charge                              
                                                                                
   Atomic configuration                                                         
    9 entries                                                                   
     n  l   j            E        occ.                                          
     1  0  0.50     -5360.7193   2.0000                                         
     2  0  0.50      -598.4546   2.0000                                         
     2  1  1.50      -499.0155   6.0000                                         
     3  0  0.50       -66.5711   2.0000                                         
     3  1  1.50       -40.5282   6.0000                                         
     3  2  2.50        -2.4291   4.0000                                         
     4  0  0.50        -3.8743   1.0000                                         
     4  1  0.50        -2.7212   0.0000                                         
     4  3  2.50        -1.3606   0.0000                                         
   Description                                                                  
     l       E           TYP  RCUT    TYP  RCUT                                 
     2     -2.4290901     23  2.700                                             
     2     -3.7896727     23  2.700                                             
     0     -3.8742752     23  2.700                                             
     0     27.2116520     23  2.700                                             
     1     -2.7211652     23  2.700                                             
     1     27.2116520     23  2.700                                             
  local pseudopotential read in
  partial core-charges read in
  partial kinetic energy density read in
  atomic valenz-charges read in
  non local Contribution for L=           2  read in
    real space projection operators read in
  non local Contribution for L=           2  read in
    real space projection operators read in
  non local Contribution for L=           0  read in
    real space projection operators read in
  non local Contribution for L=           0  read in
    real space projection operators read in
  non local Contribution for L=           1  read in
    real space projection operators read in
  non local Contribution for L=           1  read in
    real space projection operators read in
    PAW grid and wavefunctions read in
 
   number of l-projection  operators is LMAX  =           6
   number of lm-projection operators is LMMAX =          18
 
 POTCAR:    PAW_PBE Fe 06Sep2000                  
   VRHFIN =Fe:  d7 s1                                                           
   LEXCH  = PE                                                                  
   EATOM  =   594.3153 eV,   43.6809 Ry                                         
                                                                                
   TITEL  = PAW_PBE Fe 06Sep2000                                                
   LULTRA =        F    use ultrasoft PP ?                                      
   IUNSCR =        1    unscreen: 0-lin 1-nonlin 2-no                           
   RPACOR =    2.000    partial core radius                                     
   POMASS =   55.847; ZVAL   =    8.000    mass and valenz                      
   RCORE  =    2.300    outmost cutoff radius                                   
   RWIGS  =    2.460; RWIGS  =    1.302    wigner-seitz radius (au A)           
   ENMAX  =  267.882; ENMIN  =  200.911 eV                                      
   RCLOC  =    1.701    cutoff for local pot                                    
   LCOR   =        T    correct aug charges                                     
   LPAW   =        T    paw PP                                                  
   EAUG   =  511.368                                                            
   DEXC   =    0.000                                                            
   RMAX   =    2.356    core radius for proj-oper                               
   RAUG   =    1.300    factor for augmentation sphere                          
   RDEP   =    2.442    radius for radial grids                                 
   RDEPT  =    1.890    core radius for aug-charge                              
                                                                                
   Atomic configuration                                                         
    9 entries                                                                   
     n  l   j            E        occ.                                          
     1  0  0.50     -6993.8440   2.0000                                         
     2  0  0.50      -814.6047   2.0000                                         
     2  1  1.50      -693.3689   6.0000                                         
     3  0  0.50       -89.4732   2.0000                                         
     3  1  1.50       -55.6373   6.0000                                         
     3  2  2.50        -3.8151   7.0000                                         
     4  0  0.50        -4.2551   1.0000                                         
     4  1  1.50        -3.4015   0.0000                                         
     4  3  2.50        -1.3606   0.0000                                         
   Description                                                                  
     l       E           TYP  RCUT    TYP  RCUT                                 
     2     -3.8151135     23  2.300                                             
     2     -5.1756961     23  2.300                                             
     0     -4.2550963     23  2.300                                             
     0      7.2035603     23  2.300                                             
     1     -2.7211652     23  2.300                                             
     1     18.4316424     23  2.300                                             
  local pseudopotential read in
  partial core-charges read in
  partial kinetic energy density read in
  atomic valenz-charges read in
  non local Contribution for L=           2  read in
    real space projection operators read in
  non local Contribution for L=           2  read in
    real space projection operators read in
  non local Contribution for L=           0  read in
    real space projection operators read in
  non local Contribution for L=           0  read in
    real space projection operators read in
  non local Contribution for L=           1  read in
    real space projection operators read in
  non local Contribution for L=           1  read in
    real space projection operators read in
    PAW grid and wavefunctions read in
 
   number of l-projection  operators is LMAX  =           6
   number of lm-projection operators is LMMAX =          18
 

 ----------------------------------------------------------------------------- 
|                                                                             |
|  ADVICE TO THIS USER RUNNING 'VASP/VAMP'   (HEAR YOUR MASTER'S VOICE ...):  |
|                                                                             |
|      You have a (more or less) 'large supercell' and for larger cells       |
|      it might be more efficient to use real space projection opertators     |
|      So try LREAL= Auto  in the INCAR   file.                               |
|      Mind:          For very  accurate calculation you might also keep the  |
|      reciprocal projection scheme          (i.e. LREAL=.FALSE.)             |
|                                                                             |
 ----------------------------------------------------------------------------- 

  PAW_PBE V 08Apr2002                   :
 energy of atom  1       EATOM= -170.8679
 kinetic energy error for atom=    0.0066 (will be added to EATOM!!)
  PAW_PBE Fe 06Sep2000                  :
 energy of atom  2       EATOM= -594.3153
 kinetic energy error for atom=    0.0346 (will be added to EATOM!!)
 
 
 POSCAR: EA0     6.370  9.635  4.287 90.01 90.00 
  positions in direct lattice
  No initial velocities read in
 exchange correlation table for  LEXCH =        8
   RHO(1)=    0.500       N(1)  =     2000
   RHO(2)=  100.500       N(2)  =     4000
 


--------------------------------------------------------------------------------------------------------


 ion  position               nearest neighbor table
   1  0.767  0.269  0.411-  17 2.00  15 2.39   2 2.54   3 2.61   5 2.62   5 2.62  15 2.84  20 2.91
                            14 2.96   4 2.98   4 2.98   9 3.13
   2  0.969  0.064  0.412-  16 2.05   3 2.51  19 2.52   1 2.54   4 2.61   4 2.62  18 2.93  18 2.94
                            19 2.94  17 2.95   5 3.01   5 3.02  10 3.08   9 3.16
   3  0.360  0.164  0.411-   9 2.08  12 2.42   2 2.51  18 2.54  18 2.55   1 2.61  12 2.86   4 2.94
                             4 2.94   5 2.96   5 2.96  14 2.97  17 2.99  16 3.08
   4  0.069  0.216  0.911-  12 1.99  17 2.41  18 2.42   2 2.61   5 2.61   2 2.62  17 2.85   3 2.94
                             3 2.94  11 2.94   1 2.98   1 2.98  15 2.98  19 3.12
   5  0.660  0.117  0.911-  19 2.13  18 2.50   9 2.51   4 2.61   1 2.62   1 2.62  15 2.93   9 2.93
                             3 2.96   3 2.96  12 2.99   2 3.01   2 3.02  13 3.08
   6  0.569  0.624  0.974-  13 2.46  15 2.51   7 2.53  11 2.56  14 2.59  14 2.59  10 2.61  10 2.61
                            19 2.95  12 2.97  20 2.97  20 2.97   8 2.99   8 2.99
   7  0.964  0.724  0.974-  19 2.45  11 2.51   6 2.53  20 2.60  20 2.60  16 2.61  16 2.61  13 2.64
                            10 2.93  10 2.93  15 2.93   8 2.96   8 2.96
   8  0.263  0.673  0.474-  16 2.48  20 2.52  14 2.53  11 2.59  11 2.59  13 2.63  13 2.63  10 2.63
                            17 2.94   7 2.96   7 2.96   9 2.98   6 2.99   6 2.99
   9  0.469  0.975  0.475-   3 2.08  18 2.37   5 2.51  10 2.51  16 2.57  13 2.60  13 2.60  18 2.81
                             5 2.93   8 2.98  19 2.98  19 2.98   1 3.13   2 3.16
  10  0.674  0.775  0.474-  20 2.48   9 2.51  16 2.53  19 2.59  19 2.59   6 2.61   6 2.61   8 2.63
                             7 2.93   7 2.93  14 2.95  13 2.95  13 2.95   2 3.08
  11  0.170  0.524  0.974-  12 2.46   7 2.51  15 2.53   6 2.56   8 2.59   8 2.59  17 2.61  17 2.61
                             4 2.94  13 2.97  20 2.97  20 2.97  14 2.99  14 2.99
  12  0.361  0.323  0.975-   4 1.99   3 2.42  11 2.46  14 2.63  14 2.63  15 2.64  18 2.86   3 2.86
                            17 2.95  17 2.95   6 2.97   5 2.99
  13  0.378  0.825  0.974-  18 2.17   6 2.46  19 2.52   9 2.60   9 2.60   8 2.63   8 2.63   7 2.64
                            10 2.95  10 2.95  11 2.97  16 3.01  16 3.01   5 3.08
  14  0.476  0.475  0.474-  20 2.52   8 2.53   6 2.59   6 2.59  12 2.63  12 2.63  17 2.63  10 2.95
                             1 2.96  15 2.96  15 2.97   3 2.97  11 2.99  11 2.99
  15  0.775  0.424  0.975-   1 2.39   6 2.51  11 2.53  20 2.60  20 2.60  12 2.64   1 2.84  17 2.93
                             5 2.93  17 2.93   7 2.93  14 2.96  14 2.97   4 2.98
  16  0.068  0.875  0.474-   2 2.05   8 2.48  10 2.53  18 2.56   9 2.57   7 2.61   7 2.61  19 2.95
                            19 2.95  20 2.95  18 2.97  13 3.01  13 3.01   3 3.08
  17  0.065  0.373  0.474-   1 2.00   4 2.41  20 2.48  11 2.61  11 2.61  14 2.63   4 2.85  15 2.93
                            15 2.93   8 2.94   2 2.95  12 2.95  12 2.95   3 2.99
  18  0.267  0.024  0.913-  13 2.17   9 2.37   4 2.42   5 2.50   3 2.54   3 2.55  16 2.56   9 2.81
                            12 2.86   2 2.93   2 2.94  16 2.97
  19  0.772  0.923  0.974-   5 2.13   7 2.45   2 2.52  13 2.52  10 2.59  10 2.59   2 2.94  16 2.95
                            16 2.95   6 2.95   9 2.98   9 2.98   4 3.12
  20  0.870  0.574  0.474-  17 2.48  10 2.48   8 2.52  14 2.52  15 2.60   7 2.60   7 2.60  15 2.60
                             1 2.91  16 2.95  11 2.97   6 2.97   6 2.97  11 2.97
 
  LATTYP: Found a triclinic cell.
 ALAT       =    16.9035793528
 B/A-ratio  =     0.3768236222
 C/A-ratio  =     0.2536251010
 COS(alpha) =     0.0000151615
 COS(beta)  =     0.5072051345
 COS(gamma) =     0.6540295856
  
  Lattice vectors:
  
 A1 = ( -11.0554410000,  -9.4862450000,  -8.5743440000)
 A2 = (  -6.3696680000,   0.0000000000,   0.0000000000)
 A3 = (  -0.0000650000,   0.0004200000,  -4.2871720000)


Analysis of symmetry for initial positions (statically):
=====================================================================
 Subroutine PRICEL returns:
 Original cell was already a primitive cell.
 

 Routine SETGRP: Setting up the symmetry group for a 
 triclinic supercell.


 Subroutine GETGRP returns: Found  1 space group operations
 (whereof  1 operations were pure point group operations)
 out of a pool of  2 trial point group operations.


The static configuration has the point symmetry C_1 .


Analysis of symmetry for dynamics (positions and initial velocities):
=====================================================================
 Subroutine PRICEL returns:
 Original cell was already a primitive cell.
 

 Routine SETGRP: Setting up the symmetry group for a 
 triclinic supercell.


 Subroutine GETGRP returns: Found  1 space group operations
 (whereof  1 operations were pure point group operations)
 out of a pool of  2 trial point group operations.


The dynamic configuration has the point symmetry C_1 .


 Subroutine INISYM returns: Found  1 space group operations
 (whereof  1 operations are pure point group operations),
 and found     1 'primitive' translations

 
 
 KPOINTS: EA                                      

Automatic generation of k-mesh.
Space group operators:
 irot       det(A)        alpha          n_x          n_y          n_z        tau_x        tau_y        tau_z
    1     1.000000     0.000000     1.000000     0.000000     0.000000     0.000000     0.000000     0.000000
 
 Subroutine IBZKPT returns following result:
 ===========================================
 
 Found      8 irreducible k-points:
 
 Following reciprocal coordinates:
            Coordinates               Weight
  0.000000  0.000000  0.000000      1.000000
  0.500000 -0.000000  0.000000      1.000000
  0.000000  0.500000 -0.000000      1.000000
  0.500000  0.500000 -0.000000      1.000000
  0.000000  0.000000  0.333333      2.000000
  0.500000 -0.000000  0.333333      2.000000
  0.000000  0.500000  0.333333      2.000000
  0.500000  0.500000  0.333333      2.000000
 
 Following cartesian coordinates:
            Coordinates               Weight
  0.000000  0.000000  0.000000      1.000000
  0.078497  0.013934  0.000000      1.000000
  0.000000  0.052703  0.000005      1.000000
  0.078497  0.066637  0.000005      1.000000
  0.000000  0.000000  0.077751      2.000000
  0.078497  0.013934  0.077752      2.000000
  0.000000  0.052703  0.077756      2.000000
  0.078497  0.066637  0.077757      2.000000
 


--------------------------------------------------------------------------------------------------------




 Dimension of arrays:
   k-points           NKPTS =      8   k-points in BZ     NKDIM =      8   number of bands    NBANDS=     68
   number of dos      NEDOS =    301   number of ions     NIONS =     20
   non local maximal  LDIM  =      6   non local SUM 2l+1 LMDIM =     18
   total plane-waves  NPLWV =  20160
   max r-space proj   IRMAX =      1   max aug-charges    IRDMAX=   4918
   dimension x,y,z NGX =    28 NGY =   40 NGZ =   18
   dimension x,y,z NGXF=    56 NGYF=   80 NGZF=   36
   support grid    NGXF=    56 NGYF=   80 NGZF=   36
   ions per type =              17   3
   NGX,Y,Z   is equivalent  to a cutoff of   7.31,  6.90,  6.98 a.u.
   NGXF,Y,Z  is equivalent  to a cutoff of  14.62, 13.80, 13.96 a.u.

 SYSTEM =  unknown system                          
 POSCAR =  EA0     6.370  9.635  4.287 90.01 90.00 

 Startparameter for this run:
   NWRITE =      2    write-flag & timer
   PREC   = normal    normal or accurate (medium, high low for compatibility)
   ISTART =      0    job   : 0-new  1-cont  2-samecut
   ICHARG =      2    charge: 1-file 2-atom 10-const
   ISPIN  =      1    spin polarized calculation?
   LNONCOLLINEAR =      F non collinear calculations
   LSORBIT =      F    spin-orbit coupling
   INIWAV =      1    electr: 0-lowe 1-rand  2-diag
   LASPH  =      F    aspherical Exc in radial PAW
   METAGGA=      F    non-selfconsistent MetaGGA calc.

 Electronic Relaxation 1
   ENCUT  =  267.9 eV  19.69 Ry    4.44 a.u.   8.50 12.86  5.72*2*pi/ulx,y,z
   ENINI  =  267.9     initial cutoff
   ENAUG  =  511.4 eV  augmentation charge cutoff
   NELM   =     60;   NELMIN=  2; NELMDL= -5     # of ELM steps 
   EDIFF  = 0.1E-04   stopping-criterion for ELM
   LREAL  =      F    real-space projection
   NLSPLINE    = F    spline interpolate recip. space projectors
   LCOMPAT=      F    compatible to vasp.4.4
   GGA_COMPAT  = T    GGA compatible to vasp.4.4-vasp.4.6
   LMAXPAW     = -100 max onsite density
   LMAXMIX     =    2 max onsite mixed and CHGCAR
   VOSKOWN=      0    Vosko Wilk Nusair interpolation
   ROPT   =    0.00000   0.00000
 Ionic relaxation
   EDIFFG = -.1E-01   stopping-criterion for IOM
   NSW    =    500    number of steps for IOM
   NBLOCK =      1;   KBLOCK =    500    inner block; outer block 
   IBRION =      2    ionic relax: 0-MD 1-quasi-New 2-CG
   NFREE  =      1    steps in history (QN), initial steepest desc. (CG)
   ISIF   =      3    stress and relaxation
   IWAVPR =     11    prediction:  0-non 1-charg 2-wave 3-comb
   ISYM   =      2    0-nonsym 1-usesym 2-fastsym
   LCORR  =      T    Harris-Foulkes like correction to forces

   POTIM  = 0.5000    time-step for ionic-motion
   TEIN   =    0.0    initial temperature
   TEBEG  =    0.0;   TEEND  =   0.0 temperature during run
   SMASS  =  -3.00    Nose mass-parameter (am)
   estimated Nose-frequenzy (Omega)   =  0.10E-29 period in steps =****** mass=  -0.927E-27a.u.
   SCALEE = 1.0000    scale energy and forces
   NPACO  =    256;   APACO  = 16.0  distance and # of slots for P.C.
   PSTRESS=    0.0 pullay stress

  Mass of Ions in am
   POMASS =  50.94 55.85
  Ionic Valenz
   ZVAL   =   5.00  8.00
  Atomic Wigner-Seitz radii
   RWIGS  =  -1.00 -1.00
  virtual crystal weights 
   VCA    =   1.00  1.00
   NELECT =     109.0000    total number of electrons
   NUPDOWN=      -1.0000    fix difference up-down

 DOS related values:
   EMIN   =  10.00;   EMAX   =-10.00  energy-range for DOS
   EFERMI =   0.00
   ISMEAR =     0;   SIGMA  =   0.10  broadening in eV -4-tet -1-fermi 0-gaus

 Electronic relaxation 2 (details)
   IALGO  =     38    algorithm
   LDIAG  =      T    sub-space diagonalisation (order eigenvalues)
   LSUBROT=      F    optimize rotation matrix (better conditioning)
   TURBO    =      0    0=normal 1=particle mesh
   IRESTART =      0    0=no restart 2=restart with 2 vectors
   NREBOOT  =      0    no. of reboots
   NMIN     =      0    reboot dimension
   EREF     =   0.00    reference energy to select bands
   IMIX   =      4    mixing-type and parameters
     AMIX     =   0.40;   BMIX     =  1.00
     AMIX_MAG =   1.60;   BMIX_MAG =  1.00
     AMIN     =   0.10
     WC   =   100.;   INIMIX=   1;  MIXPRE=   1;  MAXMIX= -45

 Intra band minimization:
   WEIMIN = 0.0010     energy-eigenvalue tresh-hold
   EBREAK =  0.37E-07  absolut break condition
   DEPER  =   0.30     relativ break condition  

   TIME   =   0.40     timestep for ELM

  volume/ion in A,a.u.               =      12.95        87.42
  Fermi-wavevector in a.u.,A,eV,Ry     =   1.226714  2.318154 20.474434  1.504828
  Thomas-Fermi vector in A             =   2.361705
 
 Write flags
   LWAVE        =      F    write WAVECAR
   LDOWNSAMPLE  =      F    k-point downsampling of WAVECAR
   LCHARG       =      F    write CHGCAR
   LVTOT        =      F    write LOCPOT, total local potential
   LVHAR        =      F    write LOCPOT, Hartree potential only
   LELF         =      F    write electronic localiz. function (ELF)
   LORBIT       =      0    0 simple, 1 ext, 2 COOP (PROOUT), +10 PAW based schemes


 Dipole corrections
   LMONO  =      F    monopole corrections only (constant potential shift)
   LDIPOL =      F    correct potential (dipole corrections)
   IDIPOL =      0    1-x, 2-y, 3-z, 4-all directions 
   EPSILON=  1.0000000 bulk dielectric constant

 Exchange correlation treatment:
   GGA     =    --    GGA type
   LEXCH   =     8    internal setting for exchange type
   VOSKOWN=      0    Vosko Wilk Nusair interpolation
   LHFCALC =     F    Hartree Fock is set to
   LHFONE  =     F    Hartree Fock one center treatment
   AEXX    =    0.0000 exact exchange contribution

 Linear response parameters
   LEPSILON=     F    determine dielectric tensor
   LRPA    =     F    only Hartree local field effects (RPA)
   LNABLA  =     F    use nabla operator in PAW spheres
   LVEL    =     F    velocity operator in full k-point grid
   LINTERFAST=   F  fast interpolation
   KINTER  =     0    interpolate to denser k-point grid
   CSHIFT  =0.1000    complex shift for real part using Kramers Kronig
   OMEGAMAX=  -1.0    maximum frequency
   DEG_THRESHOLD= 0.2000000E-02 threshold for treating states as degnerate
   RTIME   =   -0.100 relaxation time in fs
  (WPLASMAI=    0.000 imaginary part of plasma frequency in eV, 0.658/RTIME)
   DFIELD  = 0.0000000 0.0000000 0.0000000 field for delta impulse in time
 
 Orbital magnetization related:
   ORBITALMAG=     F  switch on orbital magnetization
   LCHIMAG   =     F  perturbation theory with respect to B field
   DQ        =  0.001000  dq finite difference perturbation B field
   LLRAUG    =     F  two centre corrections for induced B field



--------------------------------------------------------------------------------------------------------


 conjugate gradient relaxation of ions
 charge density and potential will be updated during run
 non-spin polarized calculation
 Variant of blocked Davidson
 Davidson routine will perform the subspace rotation
 perform sub-space diagonalisation
    after iterative eigenvector-optimisation
 modified Broyden-mixing scheme, WC =      100.0
 initial mixing is a Kerker type mixing with AMIX =  0.4000 and BMIX =      1.0000
 Hartree-type preconditioning will be used
 using additional bands           13
 reciprocal scheme for non local part
 use partial core corrections
 calculate Harris-corrections to forces 
   (improved forces if not selfconsistent)
 use gradient corrections 
 use of overlap-Matrix (Vanderbilt PP)
 Gauss-broadening in eV      SIGMA  =   0.10


--------------------------------------------------------------------------------------------------------


  energy-cutoff  :      267.88
  volume of cell :      259.07
      direct lattice vectors                 reciprocal lattice vectors
     6.369668000  0.000000000  0.000000000     0.156994054  0.027867560  0.000000350
    -1.684025000  9.487085000  0.000000000     0.000000000  0.105406455  0.000010326
     0.000065000 -0.000420000  4.287172000     0.000000000  0.000000000  0.233253996

  length of vectors
     6.369668000  9.635389042  4.287172021     0.159448217  0.105406456  0.233253996


 
 k-points in units of 2pi/SCALE and weight: EA                                      
   0.00000000  0.00000000  0.00000000       0.083
   0.07849703  0.01393378  0.00000017       0.083
   0.00000000  0.05270323  0.00000516       0.083
   0.07849703  0.06663701  0.00000534       0.083
   0.00000000  0.00000000  0.07775133       0.167
   0.07849703  0.01393378  0.07775151       0.167
   0.00000000  0.05270323  0.07775650       0.167
   0.07849703  0.06663701  0.07775667       0.167
 
 k-points in reciprocal lattice and weights: EA                                      
   0.00000000  0.00000000  0.00000000       0.083
   0.50000000 -0.00000000  0.00000000       0.083
   0.00000000  0.50000000 -0.00000000       0.083
   0.50000000  0.50000000 -0.00000000       0.083
   0.00000000  0.00000000  0.33333333       0.167
   0.50000000 -0.00000000  0.33333333       0.167
   0.00000000  0.50000000  0.33333333       0.167
   0.50000000  0.50000000  0.33333333       0.167
 
 position of ions in fractional coordinates (direct lattice) 
   0.76727300  0.26903500  0.41114300
   0.96889500  0.06369700  0.41194300
   0.35998400  0.16395400  0.41133900
   0.06865900  0.21602400  0.91129400
   0.65954700  0.11729200  0.91135700
   0.56937100  0.62382200  0.97426600
   0.96412000  0.72413700  0.97408000
   0.26285500  0.67279500  0.47408700
   0.46891500  0.97510600  0.47461500
   0.67361500  0.77525500  0.47429200
   0.16989600  0.52406200  0.97407100
   0.36132600  0.32326600  0.97454900
   0.37771800  0.82452500  0.97428700
   0.47627500  0.47506800  0.47436500
   0.77500100  0.42388800  0.97470300
   0.06779300  0.87453100  0.47428200
   0.06543900  0.37267700  0.47438500
   0.26729600  0.02376600  0.91257300
   0.77184000  0.92324900  0.97446900
   0.86967700  0.57399100  0.47429000
 
 position of ions in cartesian coordinates  (Angst):
   4.43423933  2.55218523  1.76264076
   6.06429891  0.60412584  1.76607050
   2.01690267  1.55527277  1.76348104
   0.07360445  2.04905531  3.90687412
   4.00363200  1.11237640  3.90714421
   2.57623572  5.91784315  4.17684592
   4.92172282  6.86954016  4.17604850
   0.54132630  6.38266424  2.03249251
   1.34476084  9.25071417  2.03475614
   2.98518594  7.35471088  2.03337138
   0.19971092  4.97141163  4.17600992
   1.75720198  3.06644271  4.17805919
   1.01748087  7.82192956  4.17693595
   2.23371807  4.50681126  2.03368435
   4.22272444  4.02105211  4.17871941
  -1.04088234  8.29655073  2.03332851
  -0.21074185  3.53541913  2.03377009
   1.66262356  0.22508678  3.91235741
   3.36165349  8.75853246  4.17771621
   4.57296939  5.44530220  2.03336281
 


--------------------------------------------------------------------------------------------------------


 k-point  1 :   0.0000 0.0000 0.0000  plane waves:    2587
 k-point  2 :   0.5000-0.0000 0.0000  plane waves:    2574
 k-point  3 :   0.0000 0.5000-0.0000  plane waves:    2596
 k-point  4 :   0.5000 0.5000-0.0000  plane waves:    2578
 k-point  5 :   0.0000 0.0000 0.3333  plane waves:    2584
 k-point  6 :   0.5000-0.0000 0.3333  plane waves:    2564
 k-point  7 :   0.0000 0.5000 0.3333  plane waves:    2572
 k-point  8 :   0.5000 0.5000 0.3333  plane waves:    2572

 maximum and minimum number of plane-waves per node :      2596     2564

 maximum number of plane-waves:      2596
 maximum index in each direction: 
   IXMAX=    8   IYMAX=   12   IZMAX=    5
   IXMIN=   -8   IYMIN=  -13   IZMIN=   -6


 serial   3D FFT for wavefunctions
 parallel 3D FFT for charge:
    minimum data exchange during FFTs selected (reduces bandwidth)


 total amount of memory used by VASP MPI-rank0    48240. kBytes
=======================================================================

   base      :      30000. kBytes
   nonl-proj :       6811. kBytes
   fftplans  :       1515. kBytes
   grid      :       3171. kBytes
   one-center:        311. kBytes
   wavefun   :       6432. kBytes
 
     INWAV:  cpu time    0.0000: real time    0.0000
 Broyden mixing: mesh for mixing (old mesh)
   NGX = 17   NGY = 25   NGZ = 11
  (NGX  = 56   NGY  = 80   NGZ  = 36)
  gives a total of   4675 points

 initial charge density was supplied:
 charge density of overlapping atoms calculated
 number of electron     109.0000000 magnetization 
 keeping initial charge density in first step


--------------------------------------------------------------------------------------------------------


 Maximum index for augmentation-charges         1165 (set IRDMAX)


--------------------------------------------------------------------------------------------------------


 First call to EWALD:  gamma=   0.278
 Maximum number of real-space cells 3x 2x 4
 Maximum number of reciprocal cells 3x 4x 2

    FEWALD:  cpu time    0.0026: real time    0.0026


--------------------------------------- Iteration      1(   1)  ---------------------------------------


    POTLOK:  cpu time    0.0335: real time    0.0336
    SETDIJ:  cpu time    0.0169: real time    0.0169
     EDDAV:  cpu time    1.4093: real time    1.4108
       DOS:  cpu time    0.0011: real time    0.0011
    --------------------------------------------
      LOOP:  cpu time    1.4608: real time    1.4625

 eigenvalue-minimisations  :  1088
 total energy-change (2. order) : 0.6427078E+03  (-0.2301000E+04)
 number of electron     109.0000000 magnetization 
 augmentation part      109.0000000 magnetization 

 Free energy of the ion-electron system (eV)
  ---------------------------------------------------
  alpha Z        PSCENC =       552.45272323
  Ewald energy   TEWEN  =     -5256.21967043
  -Hartree energ DENC   =      -830.07595355
  -exchange      EXHF   =         0.00000000
  -V(xc)+E(xc)   XCENC  =      -770.72374083
  PAW double counting   =      5171.05454107    -4356.08836938
  entropy T*S    EENTRO =        -0.05435382
  eigenvalues    EBANDS =      1444.87840998
  atomic energy  EATOM  =      4687.48422623
  Solvation  Ediel_sol  =         0.00000000
  ---------------------------------------------------
  free energy    TOTEN  =       642.70781250 eV

  energy without entropy =      642.76216632  energy(sigma->0) =      642.73498941


--------------------------------------------------------------------------------------------------------




--------------------------------------- Iteration      1(   2)  ---------------------------------------


     EDDAV:  cpu time    1.3962: real time    1.3979
       DOS:  cpu time    0.0013: real time    0.0013
    --------------------------------------------
      LOOP:  cpu time    1.3975: real time    1.3992

 eigenvalue-minimisations  :  1088
 total energy-change (2. order) :-0.7092483E+03  (-0.6858229E+03)
 number of electron     109.0000000 magnetization 
 augmentation part      109.0000000 magnetization 

 Free energy of the ion-electron system (eV)
  ---------------------------------------------------
  alpha Z        PSCENC =       552.45272323
  Ewald energy   TEWEN  =     -5256.21967043
  -Hartree energ DENC   =      -830.07595355
  -exchange      EXHF   =         0.00000000
  -V(xc)+E(xc)   XCENC  =      -770.72374083
  PAW double counting   =      5171.05454107    -4356.08836938
  entropy T*S    EENTRO =        -0.07019681
  eigenvalues    EBANDS =       735.64595823
  atomic energy  EATOM  =      4687.48422623
  Solvation  Ediel_sol  =         0.00000000
  ---------------------------------------------------
  free energy    TOTEN  =       -66.54048224 eV

  energy without entropy =      -66.47028543  energy(sigma->0) =      -66.50538384


--------------------------------------------------------------------------------------------------------




--------------------------------------- Iteration      1(   3)  ---------------------------------------


     EDDAV:  cpu time    2.0430: real time    2.0453
       DOS:  cpu time    0.0013: real time    0.0013
    --------------------------------------------
      LOOP:  cpu time    2.0444: real time    2.0467

 eigenvalue-minimisations  :  1840
 total energy-change (2. order) :-0.1210607E+03  (-0.1140722E+03)
 number of electron     109.0000000 magnetization 
 augmentation part      109.0000000 magnetization 

 Free energy of the ion-electron system (eV)
  ---------------------------------------------------
  alpha Z        PSCENC =       552.45272323
  Ewald energy   TEWEN  =     -5256.21967043
  -Hartree energ DENC   =      -830.07595355
  -exchange      EXHF   =         0.00000000
  -V(xc)+E(xc)   XCENC  =      -770.72374083
  PAW double counting   =      5171.05454107    -4356.08836938
  entropy T*S    EENTRO =        -0.06999681
  eigenvalues    EBANDS =       614.58501088
  atomic energy  EATOM  =      4687.48422623
  Solvation  Ediel_sol  =         0.00000000
  ---------------------------------------------------
  free energy    TOTEN  =      -187.60122959 eV

  energy without entropy =     -187.53123278  energy(sigma->0) =     -187.56623119


--------------------------------------------------------------------------------------------------------




--------------------------------------- Iteration      1(   4)  ---------------------------------------


     EDDAV:  cpu time    1.9941: real time    1.9970
       DOS:  cpu time    0.0014: real time    0.0014
    --------------------------------------------
      LOOP:  cpu time    1.9955: real time    1.9984

 eigenvalue-minimisations  :  1744
 total energy-change (2. order) :-0.1213059E+02  (-0.1153435E+02)
 number of electron     109.0000000 magnetization 
 augmentation part      109.0000000 magnetization 

 Free energy of the ion-electron system (eV)
  ---------------------------------------------------
  alpha Z        PSCENC =       552.45272323
  Ewald energy   TEWEN  =     -5256.21967043
  -Hartree energ DENC   =      -830.07595355
  -exchange      EXHF   =         0.00000000
  -V(xc)+E(xc)   XCENC  =      -770.72374083
  PAW double counting   =      5171.05454107    -4356.08836938
  entropy T*S    EENTRO =        -0.09077213
  eigenvalues    EBANDS =       602.47519821
  atomic energy  EATOM  =      4687.48422623
  Solvation  Ediel_sol  =         0.00000000
  ---------------------------------------------------
  free energy    TOTEN  =      -199.73181757 eV

  energy without entropy =     -199.64104545  energy(sigma->0) =     -199.68643151


--------------------------------------------------------------------------------------------------------




--------------------------------------- Iteration      1(   5)  ---------------------------------------


     EDDAV:  cpu time    2.0783: real time    2.0807
       DOS:  cpu time    0.0014: real time    0.0014
    CHARGE:  cpu time    0.0524: real time    0.0525
    MIXING:  cpu time    0.0017: real time    0.0017
    --------------------------------------------
      LOOP:  cpu time    2.1339: real time    2.1364

 eigenvalue-minimisations  :  1760
 total energy-change (2. order) :-0.6973657E+00  (-0.6773423E+00)
 number of electron     109.0000208 magnetization 
 augmentation part       35.0208766 magnetization 

 Broyden mixing:
  rms(total) = 0.55568E+01    rms(broyden)= 0.55555E+01
  rms(prec ) = 0.65260E+01
  weight for this iteration     100.00

 Free energy of the ion-electron system (eV)
  ---------------------------------------------------
  alpha Z        PSCENC =       552.45272323
  Ewald energy   TEWEN  =     -5256.21967043
  -Hartree energ DENC   =      -830.07595355
  -exchange      EXHF   =         0.00000000
  -V(xc)+E(xc)   XCENC  =      -770.72374083
  PAW double counting   =      5171.05454107    -4356.08836938
  entropy T*S    EENTRO =        -0.09135004
  eigenvalues    EBANDS =       601.77841040
  atomic energy  EATOM  =      4687.48422623
  Solvation  Ediel_sol  =         0.00000000
  ---------------------------------------------------
  free energy    TOTEN  =      -200.42918330 eV

  energy without entropy =     -200.33783326  energy(sigma->0) =     -200.38350828


--------------------------------------------------------------------------------------------------------




--------------------------------------- Iteration      1(   6)  ---------------------------------------


    POTLOK:  cpu time    0.0320: real time    0.0320
    SETDIJ:  cpu time    0.0210: real time    0.0221
     EDDAV:  cpu time    2.4695: real time    2.4724
       DOS:  cpu time    0.0014: real time    0.0014
    CHARGE:  cpu time    0.0538: real time    0.0538
    MIXING:  cpu time    0.0018: real time    0.0018
    --------------------------------------------
      LOOP:  cpu time    2.5794: real time    2.5835

 eigenvalue-minimisations  :  2144
 total energy-change (2. order) :-0.2454432E+02  (-0.4831334E+02)
 number of electron     109.0000276 magnetization 
 augmentation part       47.0149525 magnetization 

 Broyden mixing:
  rms(total) = 0.73456E+01    rms(broyden)= 0.73446E+01
  rms(prec ) = 0.11334E+02
  weight for this iteration     100.00

 eigenvalues of (default mixing * dielectric matrix)
  average eigenvalue GAMMA=   0.3933
  0.3933

 Free energy of the ion-electron system (eV)
  ---------------------------------------------------
  alpha Z        PSCENC =       552.45272323
  Ewald energy   TEWEN  =     -5256.21967043
  -Hartree energ DENC   =      -649.85587496
  -exchange      EXHF   =         0.00000000
  -V(xc)+E(xc)   XCENC  =      -773.06266470
  PAW double counting   =      6347.73022802    -5517.24407682
  entropy T*S    EENTRO =        -0.10092641
  eigenvalues    EBANDS =       383.84253167
  atomic energy  EATOM  =      4687.48422623
  Solvation  Ediel_sol  =         0.00000000
  ---------------------------------------------------
  free energy    TOTEN  =      -224.97350418 eV

  energy without entropy =     -224.87257777  energy(sigma->0) =     -224.92304098


--------------------------------------------------------------------------------------------------------




--------------------------------------- Iteration      1(   7)  ---------------------------------------


    POTLOK:  cpu time    0.0312: real time    0.0312
    SETDIJ:  cpu time    0.0171: real time    0.0171
     EDDAV:  cpu time    2.3435: real time    2.3464
       DOS:  cpu time    0.0015: real time    0.0015
    CHARGE:  cpu time    0.0515: real time    0.0516
    MIXING:  cpu time    0.0017: real time    0.0017
    --------------------------------------------
      LOOP:  cpu time    2.4466: real time    2.4495

 eigenvalue-minimisations  :  2104
 total energy-change (2. order) : 0.4246773E+02  (-0.4785455E+02)
 number of electron     109.0000255 magnetization 
 augmentation part       42.6340745 magnetization 

 Broyden mixing:
  rms(total) = 0.30855E+01    rms(broyden)= 0.30831E+01
  rms(prec ) = 0.56165E+01
  weight for this iteration     100.00

 eigenvalues of (default mixing * dielectric matrix)
  average eigenvalue GAMMA=   0.6049
  0.9875  0.2223

 Free energy of the ion-electron system (eV)
  ---------------------------------------------------
  alpha Z        PSCENC =       552.45272323
  Ewald energy   TEWEN  =     -5256.21967043
  -Hartree energ DENC   =      -714.18797308
  -exchange      EXHF   =         0.00000000
  -V(xc)+E(xc)   XCENC  =      -769.82001536
  PAW double counting   =      6703.04972104    -5887.45997631
  entropy T*S    EENTRO =        -0.10479218
  eigenvalues    EBANDS =       502.29998298
  atomic energy  EATOM  =      4687.48422623
  Solvation  Ediel_sol  =         0.00000000
  ---------------------------------------------------
  free energy    TOTEN  =      -182.50577388 eV

  energy without entropy =     -182.40098170  energy(sigma->0) =     -182.45337779


--------------------------------------------------------------------------------------------------------




--------------------------------------- Iteration      1(   8)  ---------------------------------------


    POTLOK:  cpu time    0.0383: real time    0.0384
    SETDIJ:  cpu time    0.0174: real time    0.0174
     EDDAV:  cpu time    2.3550: real time    2.3579
       DOS:  cpu time    0.0015: real time    0.0015
    CHARGE:  cpu time    0.0518: real time    0.0518
    MIXING:  cpu time    0.0020: real time    0.0020
    --------------------------------------------
      LOOP:  cpu time    2.4660: real time    2.4690

 eigenvalue-minimisations  :  2112
 total energy-change (2. order) : 0.1912543E+00  (-0.1383623E+02)
 number of electron     109.0000282 magnetization 
 augmentation part       43.7308327 magnetization 

 Broyden mixing:
  rms(total) = 0.29142E+01    rms(broyden)= 0.29133E+01
  rms(prec ) = 0.52100E+01
  weight for this iteration     100.00

 eigenvalues of (default mixing * dielectric matrix)
  average eigenvalue GAMMA=   0.5000
  1.0298  0.2915  0.1787

 Free energy of the ion-electron system (eV)
  ---------------------------------------------------
  alpha Z        PSCENC =       552.45272323
  Ewald energy   TEWEN  =     -5256.21967043
  -Hartree energ DENC   =      -685.59379439
  -exchange      EXHF   =         0.00000000
  -V(xc)+E(xc)   XCENC  =      -770.23869752
  PAW double counting   =      7146.88805940    -6338.24934784
  entropy T*S    EENTRO =        -0.11433102
  eigenvalues    EBANDS =       481.27631278
  atomic energy  EATOM  =      4687.48422623
  Solvation  Ediel_sol  =         0.00000000
  ---------------------------------------------------
  free energy    TOTEN  =      -182.31451956 eV

  energy without entropy =     -182.20018854  energy(sigma->0) =     -182.25735405


--------------------------------------------------------------------------------------------------------




--------------------------------------- Iteration      1(   9)  ---------------------------------------


    POTLOK:  cpu time    0.0319: real time    0.0320
    SETDIJ:  cpu time    0.0168: real time    0.0168
     EDDAV:  cpu time    2.4065: real time    2.4097
       DOS:  cpu time    0.0015: real time    0.0015
    CHARGE:  cpu time    0.0539: real time    0.0540
    MIXING:  cpu time    0.0018: real time    0.0018
    --------------------------------------------
      LOOP:  cpu time    2.5125: real time    2.5157

 eigenvalue-minimisations  :  2176
 total energy-change (2. order) : 0.6278021E+01  (-0.6702671E+01)
 number of electron     109.0000251 magnetization 
 augmentation part       43.3684484 magnetization 

 Broyden mixing:
  rms(total) = 0.16365E+01    rms(broyden)= 0.16348E+01
  rms(prec ) = 0.26881E+01
  weight for this iteration     100.00

 eigenvalues of (default mixing * dielectric matrix)
  average eigenvalue GAMMA=   0.4382
  1.0288  0.3889  0.1872  0.1481

 Free energy of the ion-electron system (eV)
  ---------------------------------------------------
  alpha Z        PSCENC =       552.45272323
  Ewald energy   TEWEN  =     -5256.21967043
  -Hartree energ DENC   =      -684.75037251
  -exchange      EXHF   =         0.00000000
  -V(xc)+E(xc)   XCENC  =      -770.12674254
  PAW double counting   =      7256.49146864    -6449.24504706
  entropy T*S    EENTRO =        -0.12524999
  eigenvalues    EBANDS =       488.00216561
  atomic energy  EATOM  =      4687.48422623
  Solvation  Ediel_sol  =         0.00000000
  ---------------------------------------------------
  free energy    TOTEN  =      -176.03649882 eV

  energy without entropy =     -175.91124883  energy(sigma->0) =     -175.97387383


--------------------------------------------------------------------------------------------------------




--------------------------------------- Iteration      1(  10)  ---------------------------------------


    POTLOK:  cpu time    0.0286: real time    0.0287
    SETDIJ:  cpu time    0.0164: real time    0.0164
     EDDAV:  cpu time    2.3900: real time    2.3936
       DOS:  cpu time    0.0015: real time    0.0015
    CHARGE:  cpu time    0.0510: real time    0.0511
    MIXING:  cpu time    0.0019: real time    0.0019
    --------------------------------------------
      LOOP:  cpu time    2.4895: real time    2.4932

 eigenvalue-minimisations  :  2160
 total energy-change (2. order) : 0.1085025E+01  (-0.1355359E+01)
 number of electron     109.0000255 magnetization 
 augmentation part       43.1305597 magnetization 

 Broyden mixing:
  rms(total) = 0.97947E+00    rms(broyden)= 0.97831E+00
  rms(prec ) = 0.12761E+01
  weight for this iteration     100.00

 eigenvalues of (default mixing * dielectric matrix)
  average eigenvalue GAMMA=   0.3849
  1.0296  0.3178  0.2233  0.1945  0.1593

 Free energy of the ion-electron system (eV)
  ---------------------------------------------------
  alpha Z        PSCENC =       552.45272323
  Ewald energy   TEWEN  =     -5256.21967043
  -Hartree energ DENC   =      -684.05666504
  -exchange      EXHF   =         0.00000000
  -V(xc)+E(xc)   XCENC  =      -769.92270862
  PAW double counting   =      7323.41271075    -6516.78625994
  entropy T*S    EENTRO =        -0.11789832
  eigenvalues    EBANDS =       488.80206802
  atomic energy  EATOM  =      4687.48422623
  Solvation  Ediel_sol  =         0.00000000
  ---------------------------------------------------
  free energy    TOTEN  =      -174.95147413 eV

  energy without entropy =     -174.83357581  energy(sigma->0) =     -174.89252497


--------------------------------------------------------------------------------------------------------




--------------------------------------- Iteration      1(  11)  ---------------------------------------


    POTLOK:  cpu time    0.0291: real time    0.0292
    SETDIJ:  cpu time    0.0159: real time    0.0159
     EDDAV:  cpu time    2.2246: real time    2.2272
       DOS:  cpu time    0.0015: real time    0.0015
    CHARGE:  cpu time    0.0517: real time    0.0517
    MIXING:  cpu time    0.0022: real time    0.0022
    --------------------------------------------
      LOOP:  cpu time    2.3250: real time    2.3277

 eigenvalue-minimisations  :  1960
 total energy-change (2. order) : 0.3625183E+00  (-0.3067531E+00)
 number of electron     109.0000259 magnetization 
 augmentation part       43.0667287 magnetization 

 Broyden mixing:
  rms(total) = 0.75888E+00    rms(broyden)= 0.75879E+00
  rms(prec ) = 0.84926E+00
  weight for this iteration     100.00

 eigenvalues of (default mixing * dielectric matrix)
  average eigenvalue GAMMA=   0.4980
  1.0729  0.6895  0.6895  0.2042  0.1943  0.1374

 Free energy of the ion-electron system (eV)
  ---------------------------------------------------
  alpha Z        PSCENC =       552.45272323
  Ewald energy   TEWEN  =     -5256.21967043
  -Hartree energ DENC   =      -683.36433175
  -exchange      EXHF   =         0.00000000
  -V(xc)+E(xc)   XCENC  =      -769.80644881
  PAW double counting   =      7369.33462288    -6563.04907656
  entropy T*S    EENTRO =        -0.11485582
  eigenvalues    EBANDS =       488.69385518
  atomic energy  EATOM  =      4687.48422623
  Solvation  Ediel_sol  =         0.00000000
  ---------------------------------------------------
  free energy    TOTEN  =      -174.58895585 eV

  energy without entropy =     -174.47410002  energy(sigma->0) =     -174.53152794


--------------------------------------------------------------------------------------------------------




--------------------------------------- Iteration      1(  12)  ---------------------------------------


    POTLOK:  cpu time    0.0296: real time    0.0297
    SETDIJ:  cpu time    0.0171: real time    0.0171
     EDDAV:  cpu time    2.3133: real time    2.3158
       DOS:  cpu time    0.0014: real time    0.0014
    CHARGE:  cpu time    0.0525: real time    0.0525
    MIXING:  cpu time    0.0024: real time    0.0024
    --------------------------------------------
      LOOP:  cpu time    2.4163: real time    2.4189

 eigenvalue-minimisations  :  2152
 total energy-change (2. order) :-0.2077444E+00  (-0.2408601E+00)
 number of electron     109.0000251 magnetization 
 augmentation part       43.4606829 magnetization 

 Broyden mixing:
  rms(total) = 0.82000E+00    rms(broyden)= 0.81990E+00
  rms(prec ) = 0.12060E+01
  weight for this iteration     100.00

 eigenvalues of (default mixing * dielectric matrix)
  average eigenvalue GAMMA=   0.5442
  1.1167  0.9825  0.9825  0.2297  0.1799  0.1799  0.1383

 Free energy of the ion-electron system (eV)
  ---------------------------------------------------
  alpha Z        PSCENC =       552.45272323
  Ewald energy   TEWEN  =     -5256.21967043
  -Hartree energ DENC   =      -677.42378108
  -exchange      EXHF   =         0.00000000
  -V(xc)+E(xc)   XCENC  =      -769.80461123
  PAW double counting   =      7450.65478414    -6644.32738717
  entropy T*S    EENTRO =        -0.11825510
  eigenvalues    EBANDS =       482.50527118
  atomic energy  EATOM  =      4687.48422623
  Solvation  Ediel_sol  =         0.00000000
  ---------------------------------------------------
  free energy    TOTEN  =      -174.79670022 eV

  energy without entropy =     -174.67844512  energy(sigma->0) =     -174.73757267


--------------------------------------------------------------------------------------------------------




--------------------------------------- Iteration      1(  13)  ---------------------------------------


    POTLOK:  cpu time    0.0309: real time    0.0309
    SETDIJ:  cpu time    0.0198: real time    0.0202
     EDDAV:  cpu time    2.4028: real time    2.4064
       DOS:  cpu time    0.0017: real time    0.0017
    CHARGE:  cpu time    0.0537: real time    0.0538
    MIXING:  cpu time    0.0025: real time    0.0025
    --------------------------------------------
      LOOP:  cpu time    2.5113: real time    2.5154

 eigenvalue-minimisations  :  2144
 total energy-change (2. order) : 0.3501448E+00  (-0.2248759E+00)
 number of electron     109.0000261 magnetization 
 augmentation part       43.7071564 magnetization 

 Broyden mixing:
  rms(total) = 0.53908E+00    rms(broyden)= 0.53891E+00
  rms(prec ) = 0.72427E+00
  weight for this iteration     100.00

 eigenvalues of (default mixing * dielectric matrix)
  average eigenvalue GAMMA=   0.5944
  1.4019  1.4019  0.8571  0.4038  0.2094  0.1893  0.1356  0.1563

 Free energy of the ion-electron system (eV)
  ---------------------------------------------------
  alpha Z        PSCENC =       552.45272323
  Ewald energy   TEWEN  =     -5256.21967043
  -Hartree energ DENC   =      -673.26307816
  -exchange      EXHF   =         0.00000000
  -V(xc)+E(xc)   XCENC  =      -769.46670886
  PAW double counting   =      7620.83493507    -6815.33912551
  entropy T*S    EENTRO =        -0.11396888
  eigenvalues    EBANDS =       479.18411186
  atomic energy  EATOM  =      4687.48422623
  Solvation  Ediel_sol  =         0.00000000
  ---------------------------------------------------
  free energy    TOTEN  =      -174.44655545 eV

  energy without entropy =     -174.33258658  energy(sigma->0) =     -174.38957102


--------------------------------------------------------------------------------------------------------




--------------------------------------- Iteration      1(  14)  ---------------------------------------


    POTLOK:  cpu time    0.0314: real time    0.0316
    SETDIJ:  cpu time    0.0170: real time    0.0170
     EDDAV:  cpu time    2.3475: real time    2.3511
       DOS:  cpu time    0.0015: real time    0.0015
    CHARGE:  cpu time    0.0531: real time    0.0531
    MIXING:  cpu time    0.0021: real time    0.0021
    --------------------------------------------
      LOOP:  cpu time    2.4526: real time    2.4564

 eigenvalue-minimisations  :  2096
 total energy-change (2. order) :-0.1217310E+00  (-0.2948043E+00)
 number of electron     109.0000267 magnetization 
 augmentation part       44.0054735 magnetization 

 Broyden mixing:
  rms(total) = 0.66934E+00    rms(broyden)= 0.66908E+00
  rms(prec ) = 0.99846E+00
  weight for this iteration     100.00

 eigenvalues of (default mixing * dielectric matrix)
  average eigenvalue GAMMA=   0.6335
  1.7712  1.7712  0.6559  0.6559  0.2152  0.1944  0.1681  0.1394  0.1303

 Free energy of the ion-electron system (eV)
  ---------------------------------------------------
  alpha Z        PSCENC =       552.45272323
  Ewald energy   TEWEN  =     -5256.21967043
  -Hartree energ DENC   =      -669.51141484
  -exchange      EXHF   =         0.00000000
  -V(xc)+E(xc)   XCENC  =      -769.41349701
  PAW double counting   =      7699.57491748    -6894.36985986
  entropy T*S    EENTRO =        -0.11869759
  eigenvalues    EBANDS =       475.55298633
  atomic energy  EATOM  =      4687.48422623
  Solvation  Ediel_sol  =         0.00000000
  ---------------------------------------------------
  free energy    TOTEN  =      -174.56828647 eV

  energy without entropy =     -174.44958888  energy(sigma->0) =     -174.50893768


--------------------------------------------------------------------------------------------------------




--------------------------------------- Iteration      1(  15)  ---------------------------------------


    POTLOK:  cpu time    0.0300: real time    0.0301
    SETDIJ:  cpu time    0.0168: real time    0.0168
     EDDAV:  cpu time    2.3269: real time    2.3296
       DOS:  cpu time    0.0014: real time    0.0014
    CHARGE:  cpu time    0.0523: real time    0.0524
    MIXING:  cpu time    0.0024: real time    0.0024
    --------------------------------------------
      LOOP:  cpu time    2.4297: real time    2.4326

 eigenvalue-minimisations  :  2096
 total energy-change (2. order) : 0.1525722E+00  (-0.1186664E+00)
 number of electron     109.0000263 magnetization 
 augmentation part       43.9619440 magnetization 

 Broyden mixing:
  rms(total) = 0.39500E+00    rms(broyden)= 0.39479E+00
  rms(prec ) = 0.59728E+00
  weight for this iteration     100.00

 eigenvalues of (default mixing * dielectric matrix)
  average eigenvalue GAMMA=   0.6033
  1.8558  1.8558  0.6625  0.6625  0.2106  0.2106  0.1681  0.1390  0.1390  0.1286

 Free energy of the ion-electron system (eV)
  ---------------------------------------------------
  alpha Z        PSCENC =       552.45272323
  Ewald energy   TEWEN  =     -5256.21967043
  -Hartree energ DENC   =      -670.40725189
  -exchange      EXHF   =         0.00000000
  -V(xc)+E(xc)   XCENC  =      -769.31320053
  PAW double counting   =      7738.16087356    -6933.54019187
  entropy T*S    EENTRO =        -0.12131502
  eigenvalues    EBANDS =       477.08809246
  atomic energy  EATOM  =      4687.48422623
  Solvation  Ediel_sol  =         0.00000000
  ---------------------------------------------------
  free energy    TOTEN  =      -174.41571427 eV

  energy without entropy =     -174.29439925  energy(sigma->0) =     -174.35505676


--------------------------------------------------------------------------------------------------------




--------------------------------------- Iteration      1(  16)  ---------------------------------------


    POTLOK:  cpu time    0.0301: real time    0.0302
    SETDIJ:  cpu time    0.0169: real time    0.0169
     EDDAV:  cpu time    2.3232: real time    2.3260
       DOS:  cpu time    0.0015: real time    0.0015
    CHARGE:  cpu time    0.0520: real time    0.0520
    MIXING:  cpu time    0.0025: real time    0.0025
    --------------------------------------------
      LOOP:  cpu time    2.4261: real time    2.4291

 eigenvalue-minimisations  :  2160
 total energy-change (2. order) : 0.9698545E-01  (-0.3891254E-01)
 number of electron     109.0000264 magnetization 
 augmentation part       43.8997119 magnetization 

 Broyden mixing:
  rms(total) = 0.15781E+00    rms(broyden)= 0.15773E+00
  rms(prec ) = 0.19528E+00
  weight for this iteration     100.00

 eigenvalues of (default mixing * dielectric matrix)
  average eigenvalue GAMMA=   0.5960
  1.8836  1.8836  0.6326  0.5565  0.5565  0.2313  0.2066  0.1847  0.1582  0.1377
  0.1245

 Free energy of the ion-electron system (eV)
  ---------------------------------------------------
  alpha Z        PSCENC =       552.45272323
  Ewald energy   TEWEN  =     -5256.21967043
  -Hartree energ DENC   =      -671.32074470
  -exchange      EXHF   =         0.00000000
  -V(xc)+E(xc)   XCENC  =      -769.26375681
  PAW double counting   =      7750.26739679    -6945.96066798
  entropy T*S    EENTRO =        -0.11808380
  eigenvalues    EBANDS =       478.35984866
  atomic energy  EATOM  =      4687.48422623
  Solvation  Ediel_sol  =         0.00000000
  ---------------------------------------------------
  free energy    TOTEN  =      -174.31872882 eV

  energy without entropy =     -174.20064501  energy(sigma->0) =     -174.25968692


--------------------------------------------------------------------------------------------------------




--------------------------------------- Iteration      1(  17)  ---------------------------------------


    POTLOK:  cpu time    0.0301: real time    0.0301
    SETDIJ:  cpu time    0.0171: real time    0.0171
     EDDAV:  cpu time    1.9611: real time    1.9635
       DOS:  cpu time    0.0024: real time    0.0024
    CHARGE:  cpu time    0.0552: real time    0.0553
    MIXING:  cpu time    0.0024: real time    0.0024
    --------------------------------------------
      LOOP:  cpu time    2.0684: real time    2.0709

 eigenvalue-minimisations  :  1760
 total energy-change (2. order) : 0.5239131E-03  (-0.6229496E-02)
 number of electron     109.0000263 magnetization 
 augmentation part       43.8792853 magnetization 

 Broyden mixing:
  rms(total) = 0.14357E+00    rms(broyden)= 0.14356E+00
  rms(prec ) = 0.18780E+00
  weight for this iteration     100.00

 eigenvalues of (default mixing * dielectric matrix)
  average eigenvalue GAMMA=   0.6118
  1.9118  1.9118  0.7730  0.7730  0.7472  0.2356  0.2043  0.2005  0.1692  0.1506
  0.1395  0.1253

 Free energy of the ion-electron system (eV)
  ---------------------------------------------------
  alpha Z        PSCENC =       552.45272323
  Ewald energy   TEWEN  =     -5256.21967043
  -Hartree energ DENC   =      -671.35496960
  -exchange      EXHF   =         0.00000000
  -V(xc)+E(xc)   XCENC  =      -769.27254113
  PAW double counting   =      7752.00365431    -6947.83919636
  entropy T*S    EENTRO =        -0.11822753
  eigenvalues    EBANDS =       478.54579638
  atomic energy  EATOM  =      4687.48422623
  Solvation  Ediel_sol  =         0.00000000
  ---------------------------------------------------
  free energy    TOTEN  =      -174.31820490 eV

  energy without entropy =     -174.19997738  energy(sigma->0) =     -174.25909114


--------------------------------------------------------------------------------------------------------




--------------------------------------- Iteration      1(  18)  ---------------------------------------


    POTLOK:  cpu time    0.0294: real time    0.0294
    SETDIJ:  cpu time    0.0167: real time    0.0167
     EDDAV:  cpu time    2.1889: real time    2.1915
       DOS:  cpu time    0.0015: real time    0.0015
    CHARGE:  cpu time    0.0518: real time    0.0519
    MIXING:  cpu time    0.0026: real time    0.0026
    --------------------------------------------
      LOOP:  cpu time    2.2909: real time    2.2936

 eigenvalue-minimisations  :  2008
 total energy-change (2. order) : 0.6970352E-02  (-0.2643470E-02)
 number of electron     109.0000263 magnetization 
 augmentation part       43.8409202 magnetization 

 Broyden mixing:
  rms(total) = 0.85909E-01    rms(broyden)= 0.85901E-01
  rms(prec ) = 0.11391E+00
  weight for this iteration     100.00

 eigenvalues of (default mixing * dielectric matrix)
  average eigenvalue GAMMA=   0.6655
  2.1822  1.3934  1.3934  1.0292  0.7217  0.7217  0.2186  0.2091  0.1915  0.1643
  0.1630  0.1381  0.1250

 Free energy of the ion-electron system (eV)
  ---------------------------------------------------
  alpha Z        PSCENC =       552.45272323
  Ewald energy   TEWEN  =     -5256.21967043
  -Hartree energ DENC   =      -671.77013221
  -exchange      EXHF   =         0.00000000
  -V(xc)+E(xc)   XCENC  =      -769.24324464
  PAW double counting   =      7765.47821457    -6961.76523422
  entropy T*S    EENTRO =        -0.11766442
  eigenvalues    EBANDS =       479.38954735
  atomic energy  EATOM  =      4687.48422623
  Solvation  Ediel_sol  =         0.00000000
  ---------------------------------------------------
  free energy    TOTEN  =      -174.31123455 eV

  energy without entropy =     -174.19357013  energy(sigma->0) =     -174.25240234


--------------------------------------------------------------------------------------------------------




--------------------------------------- Iteration      1(  19)  ---------------------------------------


    POTLOK:  cpu time    0.0298: real time    0.0299
    SETDIJ:  cpu time    0.0167: real time    0.0167
     EDDAV:  cpu time    1.9524: real time    1.9551
       DOS:  cpu time    0.0014: real time    0.0014
    CHARGE:  cpu time    0.0498: real time    0.0499
    MIXING:  cpu time    0.0024: real time    0.0024
    --------------------------------------------
      LOOP:  cpu time    2.0525: real time    2.0554

 eigenvalue-minimisations  :  1728
 total energy-change (2. order) : 0.3755519E-03  (-0.2516543E-02)
 number of electron     109.0000263 magnetization 
 augmentation part       43.8127493 magnetization 

 Broyden mixing:
  rms(total) = 0.72351E-01    rms(broyden)= 0.72344E-01
  rms(prec ) = 0.10669E+00
  weight for this iteration     100.00

 eigenvalues of (default mixing * dielectric matrix)
  average eigenvalue GAMMA=   0.6928
  2.4340  1.7371  1.7371  0.8728  0.7485  0.7485  0.2174  0.2174  0.2035  0.1931
  0.1668  0.1594  0.1382  0.1250

 Free energy of the ion-electron system (eV)
  ---------------------------------------------------
  alpha Z        PSCENC =       552.45272323
  Ewald energy   TEWEN  =     -5256.21967043
  -Hartree energ DENC   =      -671.91643176
  -exchange      EXHF   =         0.00000000
  -V(xc)+E(xc)   XCENC  =      -769.24288615
  PAW double counting   =      7768.81610454    -6965.32507640
  entropy T*S    EENTRO =        -0.11718662
  eigenvalues    EBANDS =       479.75733836
  atomic energy  EATOM  =      4687.48422623
  Solvation  Ediel_sol  =         0.00000000
  ---------------------------------------------------
  free energy    TOTEN  =      -174.31085900 eV

  energy without entropy =     -174.19367238  energy(sigma->0) =     -174.25226569


--------------------------------------------------------------------------------------------------------




--------------------------------------- Iteration      1(  20)  ---------------------------------------


    POTLOK:  cpu time    0.0265: real time    0.0266
    SETDIJ:  cpu time    0.0165: real time    0.0165
     EDDAV:  cpu time    2.1372: real time    2.1402
       DOS:  cpu time    0.0015: real time    0.0015
    CHARGE:  cpu time    0.0535: real time    0.0536
    MIXING:  cpu time    0.0030: real time    0.0030
    --------------------------------------------
      LOOP:  cpu time    2.2382: real time    2.2413

 eigenvalue-minimisations  :  1976
 total energy-change (2. order) : 0.3379277E-02  (-0.1747279E-02)
 number of electron     109.0000263 magnetization 
 augmentation part       43.7884346 magnetization 

 Broyden mixing:
  rms(total) = 0.30065E-01    rms(broyden)= 0.30049E-01
  rms(prec ) = 0.42413E-01
  weight for this iteration     100.00

 eigenvalues of (default mixing * dielectric matrix)
  average eigenvalue GAMMA=   0.7029
  2.5453  1.8557  1.8557  0.8073  0.6961  0.6961  0.6792  0.1250  0.1382  0.2226
  0.2104  0.1621  0.1643  0.1953  0.1907

 Free energy of the ion-electron system (eV)
  ---------------------------------------------------
  alpha Z        PSCENC =       552.45272323
  Ewald energy   TEWEN  =     -5256.21967043
  -Hartree energ DENC   =      -672.08072084
  -exchange      EXHF   =         0.00000000
  -V(xc)+E(xc)   XCENC  =      -769.23388351
  PAW double counting   =      7775.12915186    -6971.90045132
  entropy T*S    EENTRO =        -0.11728813
  eigenvalues    EBANDS =       480.17843319
  atomic energy  EATOM  =      4687.48422623
  Solvation  Ediel_sol  =         0.00000000
  ---------------------------------------------------
  free energy    TOTEN  =      -174.30747972 eV

  energy without entropy =     -174.19019160  energy(sigma->0) =     -174.24883566


--------------------------------------------------------------------------------------------------------




--------------------------------------- Iteration      1(  21)  ---------------------------------------


    POTLOK:  cpu time    0.0256: real time    0.0257
    SETDIJ:  cpu time    0.0151: real time    0.0152
     EDDAV:  cpu time    2.0023: real time    2.0048
       DOS:  cpu time    0.0016: real time    0.0016
    CHARGE:  cpu time    0.0537: real time    0.0538
    MIXING:  cpu time    0.0035: real time    0.0035
    --------------------------------------------
      LOOP:  cpu time    2.1019: real time    2.1045

 eigenvalue-minimisations  :  1768
 total energy-change (2. order) : 0.1385763E-03  (-0.3512613E-03)
 number of electron     109.0000263 magnetization 
 augmentation part       43.7768844 magnetization 

 Broyden mixing:
  rms(total) = 0.22223E-01    rms(broyden)= 0.22220E-01
  rms(prec ) = 0.31119E-01
  weight for this iteration     100.00

 eigenvalues of (default mixing * dielectric matrix)
  average eigenvalue GAMMA=   0.6908
  2.5636  1.8666  1.8666  0.8442  0.8442  0.7291  0.7291  0.1250  0.1382  0.2259
  0.2046  0.2046  0.2025  0.1619  0.1619  0.1851

 Free energy of the ion-electron system (eV)
  ---------------------------------------------------
  alpha Z        PSCENC =       552.45272323
  Ewald energy   TEWEN  =     -5256.21967043
  -Hartree energ DENC   =      -672.15105704
  -exchange      EXHF   =         0.00000000
  -V(xc)+E(xc)   XCENC  =      -769.23371373
  PAW double counting   =      7775.99622712    -6972.82200352
  entropy T*S    EENTRO =        -0.11730896
  eigenvalues    EBANDS =       480.30323596
  atomic energy  EATOM  =      4687.48422623
  Solvation  Ediel_sol  =         0.00000000
  ---------------------------------------------------
  free energy    TOTEN  =      -174.30734115 eV

  energy without entropy =     -174.19003218  energy(sigma->0) =     -174.24868666


--------------------------------------------------------------------------------------------------------




--------------------------------------- Iteration      1(  22)  ---------------------------------------


    POTLOK:  cpu time    0.0321: real time    0.0322
    SETDIJ:  cpu time    0.0169: real time    0.0169
     EDDAV:  cpu time    2.1206: real time    2.1232
       DOS:  cpu time    0.0015: real time    0.0015
    CHARGE:  cpu time    0.0519: real time    0.0519
    MIXING:  cpu time    0.0030: real time    0.0030
    --------------------------------------------
      LOOP:  cpu time    2.2259: real time    2.2287

 eigenvalue-minimisations  :  1816
 total energy-change (2. order) : 0.1940042E-03  (-0.1140532E-03)
 number of electron     109.0000263 magnetization 
 augmentation part       43.7717281 magnetization 

 Broyden mixing:
  rms(total) = 0.14522E-01    rms(broyden)= 0.14520E-01
  rms(prec ) = 0.19684E-01
  weight for this iteration     100.00

 eigenvalues of (default mixing * dielectric matrix)
  average eigenvalue GAMMA=   0.7265
  2.5462  1.9804  1.9804  0.9234  0.9234  0.8252  0.8252  0.7294  0.1250  0.1382
  0.2214  0.2214  0.1620  0.1644  0.2000  0.2000  0.1847

 Free energy of the ion-electron system (eV)
  ---------------------------------------------------
  alpha Z        PSCENC =       552.45272323
  Ewald energy   TEWEN  =     -5256.21967043
  -Hartree energ DENC   =      -672.18289371
  -exchange      EXHF   =         0.00000000
  -V(xc)+E(xc)   XCENC  =      -769.23443471
  PAW double counting   =      7777.11955272    -6973.98203916
  entropy T*S    EENTRO =        -0.11718206
  eigenvalues    EBANDS =       480.37257074
  atomic energy  EATOM  =      4687.48422623
  Solvation  Ediel_sol  =         0.00000000
  ---------------------------------------------------
  free energy    TOTEN  =      -174.30714714 eV

  energy without entropy =     -174.18996508  energy(sigma->0) =     -174.24855611


--------------------------------------------------------------------------------------------------------




--------------------------------------- Iteration      1(  23)  ---------------------------------------


    POTLOK:  cpu time    0.0302: real time    0.0302
    SETDIJ:  cpu time    0.0170: real time    0.0170
     EDDAV:  cpu time    2.0815: real time    2.0839
       DOS:  cpu time    0.0016: real time    0.0016
    CHARGE:  cpu time    0.0515: real time    0.0516
    MIXING:  cpu time    0.0032: real time    0.0032
    --------------------------------------------
      LOOP:  cpu time    2.1850: real time    2.1874

 eigenvalue-minimisations  :  1816
 total energy-change (2. order) :-0.2703424E-04  (-0.7489078E-04)
 number of electron     109.0000262 magnetization 
 augmentation part       43.7680329 magnetization 

 Broyden mixing:
  rms(total) = 0.13354E-01    rms(broyden)= 0.13353E-01
  rms(prec ) = 0.19998E-01
  weight for this iteration     100.00

 eigenvalues of (default mixing * dielectric matrix)
  average eigenvalue GAMMA=   0.7526
  2.5186  2.2018  2.2018  1.2180  1.2180  0.7770  0.7770  0.7874  0.1250  0.1382
  0.2247  0.2247  0.2213  0.1630  0.1630  0.2013  0.2013  0.1841

 Free energy of the ion-electron system (eV)
  ---------------------------------------------------
  alpha Z        PSCENC =       552.45272323
  Ewald energy   TEWEN  =     -5256.21967043
  -Hartree energ DENC   =      -672.21466555
  -exchange      EXHF   =         0.00000000
  -V(xc)+E(xc)   XCENC  =      -769.23471674
  PAW double counting   =      7777.82374072    -6974.70082191
  entropy T*S    EENTRO =        -0.11711749
  eigenvalues    EBANDS =       480.41912777
  atomic energy  EATOM  =      4687.48422623
  Solvation  Ediel_sol  =         0.00000000
  ---------------------------------------------------
  free energy    TOTEN  =      -174.30717418 eV

  energy without entropy =     -174.19005669  energy(sigma->0) =     -174.24861543


--------------------------------------------------------------------------------------------------------




--------------------------------------- Iteration      1(  24)  ---------------------------------------


    POTLOK:  cpu time    0.0299: real time    0.0300
    SETDIJ:  cpu time    0.0168: real time    0.0169
     EDDAV:  cpu time    2.1147: real time    2.1170
       DOS:  cpu time    0.0016: real time    0.0016
    CHARGE:  cpu time    0.0510: real time    0.0511
    MIXING:  cpu time    0.0033: real time    0.0033
    --------------------------------------------
      LOOP:  cpu time    2.2174: real time    2.2198

 eigenvalue-minimisations  :  1960
 total energy-change (2. order) : 0.1136543E-03  (-0.6745955E-04)
 number of electron     109.0000262 magnetization 
 augmentation part       43.7612141 magnetization 

 Broyden mixing:
  rms(total) = 0.55263E-02    rms(broyden)= 0.55238E-02
  rms(prec ) = 0.82985E-02
  weight for this iteration     100.00

 eigenvalues of (default mixing * dielectric matrix)
  average eigenvalue GAMMA=   0.7519
  2.6737  2.1573  2.1573  1.4693  1.1715  0.7686  0.7686  0.7278  0.5819  0.1250
  0.1382  0.2215  0.2215  0.1628  0.1634  0.2082  0.1936  0.1936  0.1815

 Free energy of the ion-electron system (eV)
  ---------------------------------------------------
  alpha Z        PSCENC =       552.45272323
  Ewald energy   TEWEN  =     -5256.21967043
  -Hartree energ DENC   =      -672.28564908
  -exchange      EXHF   =         0.00000000
  -V(xc)+E(xc)   XCENC  =      -769.23624470
  PAW double counting   =      7778.59764979    -6975.50699491
  entropy T*S    EENTRO =        -0.11710100
  eigenvalues    EBANDS =       480.52400036
  atomic energy  EATOM  =      4687.48422623
  Solvation  Ediel_sol  =         0.00000000
  ---------------------------------------------------
  free energy    TOTEN  =      -174.30706052 eV

  energy without entropy =     -174.18995952  energy(sigma->0) =     -174.24851002


--------------------------------------------------------------------------------------------------------




--------------------------------------- Iteration      1(  25)  ---------------------------------------


    POTLOK:  cpu time    0.0295: real time    0.0295
    SETDIJ:  cpu time    0.0165: real time    0.0165
     EDDAV:  cpu time    2.2821: real time    2.2855
       DOS:  cpu time    0.0015: real time    0.0015
    CHARGE:  cpu time    0.0514: real time    0.0515
    MIXING:  cpu time    0.0036: real time    0.0036
    --------------------------------------------
      LOOP:  cpu time    2.3847: real time    2.3882

 eigenvalue-minimisations  :  2008
 total energy-change (2. order) : 0.5157553E-05  (-0.2247151E-04)
 number of electron     109.0000262 magnetization 
 augmentation part       43.7574900 magnetization 

 Broyden mixing:
  rms(total) = 0.37708E-02    rms(broyden)= 0.37695E-02
  rms(prec ) = 0.62045E-02
  weight for this iteration     100.00

 eigenvalues of (default mixing * dielectric matrix)
  average eigenvalue GAMMA=   0.7356
  2.5806  2.1565  2.1565  1.3407  1.3407  0.8059  0.8059  0.7699  0.7699  0.1250
  0.1382  0.2225  0.2225  0.2082  0.1971  0.1971  0.1813  0.1619  0.1659  0.1659

 Free energy of the ion-electron system (eV)
  ---------------------------------------------------
  alpha Z        PSCENC =       552.45272323
  Ewald energy   TEWEN  =     -5256.21967043
  -Hartree energ DENC   =      -672.32379551
  -exchange      EXHF   =         0.00000000
  -V(xc)+E(xc)   XCENC  =      -769.23504646
  PAW double counting   =      7778.88399780    -6975.80667703
  entropy T*S    EENTRO =        -0.11708865
  eigenvalues    EBANDS =       480.57427546
  atomic energy  EATOM  =      4687.48422623
  Solvation  Ediel_sol  =         0.00000000
  ---------------------------------------------------
  free energy    TOTEN  =      -174.30705536 eV

  energy without entropy =     -174.18996671  energy(sigma->0) =     -174.24851104


--------------------------------------------------------------------------------------------------------




--------------------------------------- Iteration      1(  26)  ---------------------------------------


    POTLOK:  cpu time    0.0303: real time    0.0303
    SETDIJ:  cpu time    0.0172: real time    0.0172
     EDDAV:  cpu time    1.3650: real time    1.3667
       DOS:  cpu time    0.0015: real time    0.0016
    CHARGE:  cpu time    0.0541: real time    0.0542
    MIXING:  cpu time    0.0043: real time    0.0043
    --------------------------------------------
      LOOP:  cpu time    1.4723: real time    1.4742

 eigenvalue-minimisations  :  1088
 total energy-change (2. order) : 0.1419138E-04  (-0.4748499E-05)
 number of electron     109.0000262 magnetization 
 augmentation part       43.7568685 magnetization 

 Broyden mixing:
  rms(total) = 0.17738E-02    rms(broyden)= 0.17732E-02
  rms(prec ) = 0.26215E-02
  weight for this iteration     100.00

 eigenvalues of (default mixing * dielectric matrix)
  average eigenvalue GAMMA=   0.7255
  2.6432  2.1283  2.1283  1.3946  1.3946  0.8018  0.8018  0.7254  0.7254  0.4929
  0.1250  0.1382  0.2223  0.2223  0.2057  0.2057  0.2007  0.1857  0.1631  0.1632
  0.1671

 Free energy of the ion-electron system (eV)
  ---------------------------------------------------
  alpha Z        PSCENC =       552.45272323
  Ewald energy   TEWEN  =     -5256.21967043
  -Hartree energ DENC   =      -672.32855655
  -exchange      EXHF   =         0.00000000
  -V(xc)+E(xc)   XCENC  =      -769.23587345
  PAW double counting   =      7778.57097103    -6975.48915684
  entropy T*S    EENTRO =        -0.11708695
  eigenvalues    EBANDS =       480.57538256
  atomic energy  EATOM  =      4687.48422623
  Solvation  Ediel_sol  =         0.00000000
  ---------------------------------------------------
  free energy    TOTEN  =      -174.30704117 eV

  energy without entropy =     -174.18995422  energy(sigma->0) =     -174.24849770


--------------------------------------------------------------------------------------------------------




--------------------------------------- Iteration      1(  27)  ---------------------------------------


    POTLOK:  cpu time    0.0313: real time    0.0313
    SETDIJ:  cpu time    0.0170: real time    0.0170
     EDDAV:  cpu time    1.0165: real time    1.0178
       DOS:  cpu time    0.0015: real time    0.0015
    --------------------------------------------
      LOOP:  cpu time    1.0663: real time    1.0676

 eigenvalue-minimisations  :   688
 total energy-change (2. order) : 0.3221921E-06  (-0.1514213E-05)
 number of electron     109.0000262 magnetization 
 augmentation part       43.7568685 magnetization 

 Free energy of the ion-electron system (eV)
  ---------------------------------------------------
  alpha Z        PSCENC =       552.45272323
  Ewald energy   TEWEN  =     -5256.21967043
  -Hartree energ DENC   =      -672.33290995
  -exchange      EXHF   =         0.00000000
  -V(xc)+E(xc)   XCENC  =      -769.23563792
  PAW double counting   =      7778.66862735    -6975.58787914
  entropy T*S    EENTRO =        -0.11709948
  eigenvalues    EBANDS =       480.58057927
  atomic energy  EATOM  =      4687.48422623
  Solvation  Ediel_sol  =         0.00000000
  ---------------------------------------------------
  free energy    TOTEN  =      -174.30704085 eV

  energy without entropy =     -174.18994137  energy(sigma->0) =     -174.24849111


--------------------------------------------------------------------------------------------------------




 average (electrostatic) potential at core
  the test charge radii are     1.2064  1.0103
  (the norm of the test charge is              1.0000)
       1 -38.9528       2 -39.2403       3 -39.2063       4 -39.0212       5 -39.3497
       6 -38.9893       7 -39.3779       8 -39.1736       9 -39.1347      10 -39.3486
      11 -38.9931      12 -38.9478      13 -39.2325      14 -39.2538      15 -39.3248
      16 -39.0705      17 -39.0420      18 -42.9475      19 -42.9072      20 -42.9955
 
 
 
 E-fermi :   6.4029     XC(G=0): -12.5958     alpha+bet :-15.2488


 k-point     1 :       0.0000    0.0000    0.0000
  band No.  band energies     occupation 
      1      -0.5275      2.00000
      2       1.1238      2.00000
[...]
     31       5.1117      2.00000
     32       5.2296      2.00000
     33       5.2910      2.00000
     34       5.3165      2.00000
     35       5.3886      2.00000
     36       5.4366      2.00000
     37       5.4820      2.00000
     38       5.5979      2.00000
     39       5.6802      2.00000
     40       5.6956      2.00000
     41       5.7126      2.00000
     42       5.8174      2.00000
     43       5.8803      2.00000
     44       5.9343      2.00000
     45       5.9868      2.00000
     46       6.0440      2.00000
     47       6.0815      2.00000
     48       6.0897      2.00000
     49       6.1266      2.00000
     50       6.1830      2.00000
     51       6.2188      2.00000
     52       6.2505      1.99997
     53       6.3356      1.99707
     54       6.3709      1.98668
     55       6.4192      1.92688
     56       6.4397      1.86703
     57       6.4764      1.67464
     58       7.0800      0.00000
     59       7.0862      0.00000
     60       7.2716      0.00000
     61       7.3427      0.00000
     62       7.4162      0.00000
     63       7.4357      0.00000
     64       7.5811      0.00000
     65       7.5924      0.00000
     66       7.6603      0.00000
     67       7.7199      0.00000
     68       7.7801      0.00000

 k-point     7 :       0.0000    0.5000    0.3333
  band No.  band energies     occupation 
      1       0.9941      2.00000
      2       1.2479      2.00000
      3       2.9239      2.00000
      4       2.9987      2.00000
      5       3.1389      2.00000
      6       3.2307      2.00000
      7       3.2827      2.00000
      8       3.3110      2.00000
      9       3.4338      2.00000
     10       3.4915      2.00000
     11       3.5221      2.00000
     12       3.5248      2.00000
     13       3.7526      2.00000
     14       3.8078      2.00000
     15       3.9183      2.00000
     16       3.9472      2.00000
     17       3.9681      2.00000
     18       4.0269      2.00000
     19       4.1364      2.00000
     20       4.2056      2.00000
     21       4.2813      2.00000
     22       4.3599      2.00000
     23       4.5930      2.00000
     24       4.6529      2.00000
     25       4.7398      2.00000
     26       4.8070      2.00000
     27       4.8574      2.00000
     28       4.9142      2.00000
     29       4.9395      2.00000
     30       5.0017      2.00000
     31       5.0383      2.00000
     32       5.1734      2.00000
     33       5.3017      2.00000
     34       5.3277      2.00000
     35       5.4149      2.00000
     36       5.4651      2.00000
     37       5.4972      2.00000
     38       5.5852      2.00000
     39       5.6994      2.00000
     40       5.7605      2.00000
     41       5.7851      2.00000
     42       5.8389      2.00000
     43       5.8885      2.00000
     44       6.0029      2.00000
     45       6.0283      2.00000
     46       6.0734      2.00000
     47       6.0931      2.00000
     48       6.1014      2.00000
     49       6.1253      2.00000
     50       6.1498      2.00000
     51       6.2059      2.00000
     52       6.2293      1.99999
     53       6.2645      1.99993
     54       6.3654      1.98931
     55       6.5186      1.30056
     56       6.5967      0.47321
     57       6.6388      0.18912
     58       6.7023      0.02703
     59       7.1392      0.00000
     60       7.2528      0.00000
     61       7.3345      0.00000
     62       7.4244      0.00000
     63       7.4508      0.00000
     64       7.5202      0.00000
     65       7.6065      0.00000
     66       7.6235      0.00000
     67       7.7162      0.00000
     68       7.7900      0.00000

 k-point     8 :       0.5000    0.5000    0.3333
  band No.  band energies     occupation 
      1       1.6130      2.00000
      2       1.8868      2.00000
      3       2.0102      2.00000
      4       2.2675      2.00000
      5       2.9209      2.00000
      6       3.0466      2.00000
      7       3.3608      2.00000
      8       3.4397      2.00000
      9       3.4817      2.00000
     10       3.5897      2.00000
     11       3.6469      2.00000
     12       3.6747      2.00000
     13       3.7652      2.00000
     14       3.7993      2.00000
     15       3.8416      2.00000
     16       3.8480      2.00000
     17       3.8815      2.00000
     18       3.9946      2.00000
     19       4.0138      2.00000
     20       4.0526      2.00000
     21       4.1024      2.00000
     22       4.1235      2.00000
     23       4.7128      2.00000
     24       4.7534      2.00000
     25       4.8243      2.00000
     26       4.8866      2.00000
     27       4.9503      2.00000
     28       5.0579      2.00000
     29       5.1531      2.00000
     30       5.2158      2.00000
     31       5.2365      2.00000
     32       5.2847      2.00000
     33       5.3576      2.00000
     34       5.3658      2.00000
     35       5.4113      2.00000
     36       5.4461      2.00000
     37       5.5169      2.00000
     38       5.5561      2.00000
     39       5.5849      2.00000
     40       5.6115      2.00000
     41       5.7559      2.00000
     42       5.7740      2.00000
     43       5.8059      2.00000
     44       5.9421      2.00000
     45       5.9618      2.00000
     46       6.0250      2.00000
     47       6.0379      2.00000
     48       6.1247      2.00000
     49       6.1650      2.00000
     50       6.2657      1.99993
     51       6.3721      1.98604
     52       6.3950      1.96725
     53       6.5400      1.06680
     54       6.5745      0.68580
     55       6.5873      0.55869
     56       6.6896      0.04220
     57       6.7825      0.00082
     58       6.8311      0.00006
     59       6.9163      0.00000
     60       6.9779      0.00000
     61       7.0861      0.00000
     62       7.1547      0.00000
     63       7.2915      0.00000
     64       7.3668      0.00000
     65       7.4443      0.00000
     66       7.4672      0.00000
     67       7.5782      0.00000
     68       7.7000      0.00000


--------------------------------------------------------------------------------------------------------


 soft charge-density along one line, spin component           1
         0         1         2         3         4         5         6         7         8         9
 total charge-density along one line
 
 pseudopotential strength for first ion, spin component:           1
 -0.992  -0.000   0.005  -0.000  -0.004  -1.520  -0.000   0.005
 -0.000  -1.006  -0.000  -0.010   0.000  -0.000  -1.534  -0.000
  0.005  -0.000  -0.996  -0.000  -0.006   0.005  -0.000  -1.524
 -0.000  -0.010  -0.000  -0.977  -0.000  -0.000  -0.010  -0.000
 -0.004   0.000  -0.006  -0.000  -0.986  -0.004   0.000  -0.005
 -1.520  -0.000   0.005  -0.000  -0.004  -1.998  -0.000   0.005
 -0.000  -1.534  -0.000  -0.010   0.000  -0.000  -2.011  -0.000
  0.005  -0.000  -1.524  -0.000  -0.005   0.005  -0.000  -2.001
 -0.000  -0.010  -0.000  -1.505  -0.000  -0.000  -0.010  -0.000
 -0.004   0.000  -0.005  -0.000  -1.515  -0.005   0.000  -0.005
  0.003   0.000   0.001   0.000  -0.003   0.003   0.000   0.001
 -0.007  -0.000  -0.004  -0.000   0.004  -0.006  -0.000  -0.004
  0.002  -0.000   0.001  -0.000   0.001   0.002  -0.000   0.000
 -0.000  -0.000  -0.000   0.002   0.000  -0.000  -0.000  -0.000
 -0.000  -0.000  -0.002  -0.000   0.003  -0.000  -0.000  -0.002
 -0.003   0.000  -0.001   0.000  -0.002  -0.003   0.000  -0.001
  0.000   0.002   0.000  -0.003  -0.000   0.000   0.002   0.000
  0.002   0.000   0.002   0.000  -0.003   0.001   0.000   0.002
 total augmentation occupancy for first ion, spin component:           1
  0.455   0.000  -0.056  -0.000  -0.110  -0.779  -0.000   0.108   0.000   0.180  -0.011  -0.001  -0.004  -0.000   0.015   0.000
  0.000   0.436  -0.000  -0.073  -0.000  -0.000  -0.748   0.000   0.144   0.000   0.000   0.000  -0.000   0.013  -0.000  -0.000
 -0.056  -0.000   0.485  -0.000   0.095   0.109   0.000  -0.820   0.000  -0.188   0.004   0.000   0.001   0.000  -0.001   0.000
 -0.000  -0.073  -0.000   0.649   0.000   0.000   0.144   0.000  -1.158  -0.000  -0.000  -0.000  -0.000  -0.006   0.000  -0.000
 -0.110  -0.000   0.095   0.000   0.616   0.180   0.000  -0.186  -0.000  -1.057   0.003   0.000   0.002   0.000  -0.000   0.000
 -0.779  -0.000   0.109   0.000   0.180   1.959   0.000  -0.086  -0.000  -0.164  -0.012   0.001  -0.004  -0.000  -0.023  -0.001
 -0.000  -0.748   0.000   0.144   0.000   0.000   1.896  -0.000  -0.157  -0.000  -0.000  -0.000  -0.000  -0.013   0.000   0.000
  0.108   0.000  -0.820   0.000  -0.186  -0.086  -0.000   1.934  -0.000   0.190  -0.000  -0.000   0.017  -0.000   0.006   0.000
  0.000   0.144   0.000  -1.158  -0.000  -0.000  -0.157  -0.000   2.320   0.000  -0.000   0.000   0.000   0.009  -0.000   0.000
  0.180   0.000  -0.188  -0.000  -1.057  -0.164  -0.000   0.190   0.000   2.206   0.014   0.000   0.018  -0.000   0.008   0.000
 -0.011   0.000   0.004  -0.000   0.003  -0.012  -0.000  -0.000  -0.000   0.014   2.081   0.048  -0.029  -0.000  -0.004  -0.000
 -0.001   0.000   0.000  -0.000   0.000   0.001  -0.000  -0.000   0.000   0.000   0.048   0.001   0.000   0.000  -0.000   0.000
 -0.004  -0.000   0.001  -0.000   0.002  -0.004  -0.000   0.017   0.000   0.018  -0.029   0.000   0.369  -0.000  -0.001   0.010
 -0.000   0.013   0.000  -0.006   0.000  -0.000  -0.013  -0.000   0.009  -0.000  -0.000   0.000  -0.000   0.402  -0.000   0.000
  0.015  -0.000  -0.001   0.000  -0.000  -0.023   0.000   0.006  -0.000   0.008  -0.004  -0.000  -0.001  -0.000   0.399   0.000
  0.000  -0.000   0.000  -0.000   0.000  -0.001   0.000   0.000   0.000   0.000  -0.000   0.000   0.010   0.000   0.000   0.000
 -0.000   0.000  -0.000  -0.000   0.000   0.000  -0.001   0.000   0.000  -0.000   0.000   0.000  -0.000   0.011   0.000  -0.000
  0.001  -0.000  -0.000  -0.000   0.000  -0.001   0.000   0.001   0.000  -0.001  -0.001  -0.000   0.000   0.000   0.011   0.000


------------------------ aborting loop because EDIFF is reached ----------------------------------------


    CHARGE:  cpu time    0.0504: real time    0.0505
    FORLOC:  cpu time    0.0085: real time    0.0085
    FORNL :  cpu time    1.1350: real time    1.1360
    STRESS:  cpu time    1.0778: real time    1.0788
    FORCOR:  cpu time    0.0345: real time    0.0345
    FORHAR:  cpu time    0.0128: real time    0.0128
    MIXING:  cpu time    0.0015: real time    0.0015
    OFIELD:  cpu time    0.0000: real time    0.0000

  FORCE on cell =-STRESS in cart. coord.  units (eV):
  Direction    XX          YY          ZZ          XY          YZ          ZX
  --------------------------------------------------------------------------------------
  Alpha Z   568.60493   568.60493   568.60493
  Ewald   -1772.60704 -1824.27947 -1763.85536   -21.86558     0.16396     0.07575
  Hartree   223.70621   160.05293   234.05044     0.73715     0.02942     0.02142
  E(xc)    -498.58242  -498.75885  -497.55253     1.25859    -0.00276    -0.00167
  Local     268.69805   389.89351   253.56803    19.67483    -0.18481    -0.09417
  n-local   -88.87703   -91.51636   -89.65323     0.83789     0.00690     0.00174
  augment   449.47554   449.05298   447.54642    -1.38229     0.00091     0.00123
  Kinetic   849.73577   847.11048   847.42522     0.71946    -0.00277     0.00254
  Fock        0.00000     0.00000     0.00000     0.00000     0.00000     0.00000
  -------------------------------------------------------------------------------------
  Total       0.15400     0.16014     0.13393    -0.01995     0.01085     0.00684
  in kB       0.98024     1.01931     0.85248    -0.12700     0.06906     0.04356
  external pressure =        0.95 kB  Pullay stress =        0.00 kB


 VOLUME and BASIS-vectors are now :
 -----------------------------------------------------------------------------
  energy-cutoff  :      267.88
  volume of cell :      251.71
      direct lattice vectors                 reciprocal lattice vectors
     6.387192629 -0.017755076 -0.002456652     0.156642066  0.028339208 -0.000046481
    -1.718314939  9.497814945  0.003191652     0.000292840  0.105340341  0.000039784
     0.001516269 -0.001572052  4.151352774     0.000092471 -0.000064218  0.240885276

  length of vectors
     6.387217779  9.652000059  4.151353348     0.159184955  0.105340755  0.240885302


 FORCES acting on ions
    electron-ion (+dipol)            ewald-force                    non-local-force                 convergence-correction
 -----------------------------------------------------------------------------------------------
   0.636E+01 -.117E+02 -.482E-01   -.658E+01 0.114E+02 0.550E-01   0.221E+00 0.365E+00 -.433E-02   -.579E-03 -.123E-01 0.102E-02
   0.139E+02 -.558E+02 -.135E+00   -.149E+02 0.561E+02 0.132E+00   0.896E+00 -.330E+00 0.135E-02   0.142E-01 -.602E-02 0.115E-02
   -.115E+02 -.568E+02 -.175E+00   0.112E+02 0.571E+02 0.178E+00   0.271E+00 -.215E+00 0.123E-02   -.112E-01 -.212E-01 0.280E-02
   0.130E+02 -.536E+02 -.270E-02   -.131E+02 0.541E+02 0.706E-02   0.522E-01 -.431E+00 -.335E-02   0.115E-01 -.218E-01 0.214E-02
   -.417E+00 -.523E+02 0.795E-02   0.590E+00 0.523E+02 -.500E-02   -.170E+00 0.757E-02 -.364E-02   -.225E-02 -.970E-02 0.144E-02
   0.306E+02 0.327E+02 0.396E-01   -.315E+02 -.331E+02 -.425E-01   0.897E+00 0.415E+00 0.228E-02   0.179E-01 0.632E-02 -.185E-02
   -.268E+02 0.293E+02 0.238E-01   0.270E+02 -.297E+02 -.241E-01   -.207E+00 0.367E+00 0.144E-02   -.509E-02 0.145E-01 -.455E-03
   -.309E+02 0.217E+02 0.230E-01   0.313E+02 -.218E+02 -.254E-01   -.419E+00 0.682E-01 0.469E-02   -.103E-01 0.172E-01 -.114E-02
   -.103E+01 -.965E+01 -.727E-02   0.112E+01 0.969E+01 0.336E-02   -.895E-01 -.472E-01 0.192E-02   -.528E-02 0.519E-02 0.673E-04
   0.349E+02 0.276E+02 -.219E-01   -.349E+02 -.279E+02 0.201E-01   -.389E-01 0.211E+00 0.192E-02   0.198E-01 0.132E-01 -.121E-02
   -.225E+02 0.200E+02 0.165E-01   0.232E+02 -.202E+02 -.182E-01   -.683E+00 0.238E+00 0.270E-02   -.905E-02 -.659E-02 -.106E-02
   -.234E+01 -.202E+02 -.836E-02   0.254E+01 0.207E+02 0.113E-01   -.195E+00 -.571E+00 -.122E-02   -.568E-02 -.172E-01 0.159E-02
   -.165E+01 0.396E+02 0.316E-01   0.148E+01 -.398E+02 -.363E-01   0.192E+00 0.125E+00 0.518E-02   -.139E-01 0.275E-01 -.783E-03
   0.287E+02 0.225E+02 -.926E-03   -.291E+02 -.225E+02 0.120E-02   0.331E+00 0.120E-01 -.142E-02   0.921E-02 -.930E-02 -.960E-03
   0.807E+01 0.350E+02 -.750E-02   -.816E+01 -.351E+02 0.496E-02   0.810E-01 0.152E+00 -.702E-03   -.514E-03 0.209E-02 -.507E-03
   -.195E+02 0.222E+02 0.406E-01   0.205E+02 -.221E+02 -.430E-01   -.986E+00 -.158E+00 0.256E-02   -.105E-01 0.164E-01 -.106E-02
   -.188E+02 0.874E+01 -.120E-01   0.189E+02 -.855E+01 0.169E-01   -.158E+00 -.167E+00 -.287E-02   0.442E-02 -.205E-01 -.643E-04
   -.385E+02 -.458E+02 0.970E-01   0.389E+02 0.460E+02 -.103E+00   -.359E+00 -.159E+00 0.410E-02   -.146E-01 0.538E-03 0.247E-02
   0.432E+02 -.971E+00 0.751E-01   -.436E+02 0.120E+01 -.818E-01   0.394E+00 -.231E+00 0.576E-02   0.295E-01 0.645E-02 -.315E-02
   -.473E+01 0.474E+02 0.475E-01   0.488E+01 -.478E+02 -.502E-01   -.130E+00 0.345E+00 0.296E-02   -.245E-01 0.323E-01 -.244E-02
 -----------------------------------------------------------------------------------------------
   0.107E+00 -.820E-02 -.162E-01   -.124E-13 0.284E-13 -.479E-14   -.100E+00 -.332E-02 0.206E-01   -.708E-02 0.170E-01 -.200E-02
 
 
 POSITION                                       TOTAL-FORCE (eV/Angst)
 -----------------------------------------------------------------------------------
      4.03374      2.53958      1.88876         0.001827      0.007617      0.003370
      5.61084      0.61856      1.88868        -0.001733      0.002682     -0.000440
      1.64092      1.60077      1.88902        -0.001992      0.000059      0.006910
     -0.35143      2.07822      3.96601        -0.001408      0.001637      0.003024
      3.62535      1.11892      3.96481         0.000865      0.001561      0.000641
      2.72879      5.91020      3.96828        -0.001000      0.002518     -0.002649
      5.07463      6.85024      3.96749         0.003304     -0.006303      0.000504
      0.66240      6.39215      1.89323         0.006245      0.000378      0.001042
      1.50163      9.21092      1.89352        -0.000663     -0.000047     -0.002036
      3.11284      7.32960      1.89297        -0.003861     -0.004688     -0.001201
      0.38216      4.95233      3.96787         0.000139     -0.001975     -0.000237
      2.01595      3.05817      3.96526        -0.002096     -0.003492      0.003179
      1.11155      7.83053      3.96946         0.005111      0.002900     -0.000387
      2.43213      4.49268      1.89113        -0.000995     -0.001567     -0.002228
      4.40611      4.01539      3.96574        -0.001177      0.000194     -0.003875
     -0.87882      8.31913      1.89456         0.002504     -0.000071     -0.001076
      0.00005      3.52496      1.89079        -0.001687     -0.001458      0.001856
      1.21931      0.20309      3.96653         0.003334      0.002694      0.000102
      3.51700      8.72215      3.96900        -0.004415     -0.000943     -0.004203
      4.74748      5.44291      1.89134        -0.002302     -0.001697     -0.002295
 -----------------------------------------------------------------------------------
    total drift:                               -0.000008      0.005485      0.002408


--------------------------------------------------------------------------------------------------------



  FREE ENERGIE OF THE ION-ELECTRON SYSTEM (eV)
  ---------------------------------------------------
  free  energy   TOTEN  =      -178.84348027 eV

  energy  without entropy=     -178.73261609  energy(sigma->0) =     -178.78804818
 
 d Force = 0.8103018E-04[ 0.381E-04, 0.124E-03]  d Energy = 0.8795541E-04-0.693E-05
 d Force = 0.7590231E-02[ 0.699E-02, 0.819E-02]  d Ewald  = 0.7670531E+00-0.759E+00


--------------------------------------------------------------------------------------------------------


    POTLOK:  cpu time    0.0441: real time    0.0442


--------------------------------------------------------------------------------------------------------


 Conjugate gradient step on ions:
 trial-energy change:   -0.000088  1 .order   -0.000075   -0.000169    0.000018
  (g-gl).g = 0.102E-03      g.g   = 0.140E-03  gl.gl    = 0.335E-03
 g(Force)  = 0.898E-04   g(Stress)= 0.498E-04 ortho     = 0.462E-05
 gamma     =   0.30419
 trial     =   1.19490
 opt step  =   1.07970  (harmonic =   1.07970) maximal distance =0.00110389
 next E    =  -178.843468   (d E  =  -0.00008)


--------------------------------------------------------------------------------------------------------


  
 reached required accuracy - stopping structural energy minimisation
     LOOP+:  cpu time   15.0104: real time   15.0255
    4ORBIT:  cpu time    0.0000: real time    0.0000

 total amount of memory used by VASP MPI-rank0    48240. kBytes
=======================================================================

   base      :      30000. kBytes
   nonl-proj :       6811. kBytes
   fftplans  :       1515. kBytes
   grid      :       3171. kBytes
   one-center:        311. kBytes
   wavefun   :       6432. kBytes
 
  
  
 General timing and accounting informations for this job:
 ========================================================
  
                  Total CPU time used (sec):      943.448
                            User time (sec):      935.812
                          System time (sec):        7.636
                         Elapsed time (sec):      945.127
  
                   Maximum memory used (kb):      200424.
                   Average memory used (kb):           0.
  
                          Minor page faults:       951923
                          Major page faults:            0
                 Voluntary context switches:          623
