<?xml version="1.0" encoding="ISO-8859-1"?>
<modeling>
 <generator>
  <i name="program" type="string">vasp </i>
  <i name="version" type="string">5.4.4.18Apr17-6-g9f103f2a35  </i>
  <i name="subversion" type="string">(build Jul 11 2019 11:52:51) complex            parallel </i>
  <i name="platform" type="string">LinuxIFC </i>
  <i name="date" type="string">2023 11 29 </i>
  <i name="time" type="string">16:54:45 </i>
 </generator>
 <incar>
  <i type="int" name="ISTART">     0</i>
  <i type="string" name="PREC">normal</i>
  <i type="int" name="IBRION">     2</i>
  <i name="EDIFF">      0.00001000</i>
  <i name="EDIFFG">     -0.01000000</i>
  <i type="int" name="NSW">   500</i>
  <i type="int" name="ISIF">     3</i>
  <i name="POTIM">      0.50000000</i>
  <i type="int" name="ISMEAR">     0</i>
  <i name="SIGMA">      0.10000000</i>
  <i name="PSTRESS">      0.00000000</i>
  <i type="logical" name="LWAVE"> F  </i>
  <i type="logical" name="LCHARG"> F  </i>
  <v type="int" name="KPOINT_BSE">    -1     0     0     0</v>
 </incar>
 <structure name="primitive_cell" >
  <crystal>
   <varray name="basis" >
    <v>       6.36966800       0.00000000       0.00000000 </v>
    <v>      -1.68402500       9.48708500       0.00000000 </v>
    <v>       0.00006500      -0.00042000       4.28717200 </v>
   </varray>
   <i name="volume">    259.07201080 </i>
   <varray name="rec_basis" >
    <v>       0.15699405       0.02786756       0.00000035 </v>
    <v>       0.00000000       0.10540646       0.00001033 </v>
    <v>       0.00000000       0.00000000       0.23325400 </v>
   </varray>
  </crystal>
  <varray name="positions" >
   <v>      -0.23272700       0.26903500       0.41114300 </v>
   <v>       0.06543900       0.37267700       0.47438500 </v>
   <v>      -0.22499900       0.42388800      -0.02529700 </v>
   <v>      -0.03110500       0.06369700       0.41194300 </v>
   <v>       0.35998400       0.16395400       0.41133900 </v>
   <v>      -0.34045300       0.11729200      -0.08864300 </v>
   <v>      -0.13032300      -0.42600900       0.47429000 </v>
   <v>       0.47627500       0.47506800       0.47436500 </v>
   <v>       0.06865900       0.21602400      -0.08870600 </v>
   <v>       0.46891500      -0.02489400       0.47461500 </v>
   <v>       0.36132600       0.32326600      -0.02545100 </v>
   <v>       0.16989600      -0.47593800      -0.02592900 </v>
   <v>      -0.22816000      -0.07675100      -0.02553100 </v>
   <v>       0.26729600       0.02376600      -0.08742700 </v>
   <v>      -0.43062900      -0.37617800      -0.02573400 </v>
   <v>       0.06779300      -0.12546900       0.47428200 </v>
   <v>       0.26285500      -0.32720500       0.47408700 </v>
   <v>      -0.32638500      -0.22474500       0.47429200 </v>
   <v>      -0.03588000      -0.27586300      -0.02592000 </v>
   <v>       0.37771800      -0.17547500      -0.02571300 </v>
  </varray>
 </structure>
 <varray name="primitive_index" >
  <v type="int" >        1 </v>
  <v type="int" >       17 </v>
  <v type="int" >       15 </v>
  <v type="int" >        2 </v>
  <v type="int" >        3 </v>
  <v type="int" >        5 </v>
  <v type="int" >       20 </v>
  <v type="int" >       14 </v>
  <v type="int" >        4 </v>
  <v type="int" >        9 </v>
  <v type="int" >       12 </v>
  <v type="int" >       11 </v>
  <v type="int" >       19 </v>
  <v type="int" >       18 </v>
  <v type="int" >        6 </v>
  <v type="int" >       16 </v>
  <v type="int" >        8 </v>
  <v type="int" >       10 </v>
  <v type="int" >        7 </v>
  <v type="int" >       13 </v>
 </varray>
 <kpoints>
  <generation param="Gamma">
   <v type="int" name="divisions">       2        2        3 </v>
   <v name="usershift">      0.00000000       0.00000000       0.00000000 </v>
   <v name="genvec1">      0.50000000      -0.00000000       0.00000000 </v>
   <v name="genvec2">      0.00000000       0.50000000       0.00000000 </v>
   <v name="genvec3">      0.00000000       0.00000000       0.33333333 </v>
   <v name="shift">      0.00000000       0.00000000       0.00000000 </v>
  </generation>
  <varray name="kpointlist" >
   <v>       0.00000000       0.00000000       0.00000000 </v>
   <v>       0.50000000      -0.00000000       0.00000000 </v>
   <v>       0.00000000       0.50000000      -0.00000000 </v>
   <v>       0.50000000       0.50000000      -0.00000000 </v>
   <v>       0.00000000       0.00000000       0.33333333 </v>
   <v>       0.50000000      -0.00000000       0.33333333 </v>
   <v>       0.00000000       0.50000000       0.33333333 </v>
   <v>       0.50000000       0.50000000       0.33333333 </v>
  </varray>
  <varray name="weights" >
   <v>       0.08333333 </v>
   <v>       0.08333333 </v>
   <v>       0.08333333 </v>
   <v>       0.08333333 </v>
   <v>       0.16666667 </v>
   <v>       0.16666667 </v>
   <v>       0.16666667 </v>
   <v>       0.16666667 </v>
  </varray>
 </kpoints>
 <parameters>
  <separator name="general" >
   <i type="string" name="SYSTEM">unknown system</i>
   <i type="logical" name="LCOMPAT"> F  </i>
  </separator>
  <separator name="electronic" >
   <i type="string" name="PREC">normal</i>
   <i name="ENMAX">    267.88200000</i>
   <i name="ENAUG">    511.36800000</i>
   <i name="EDIFF">      0.00001000</i>
   <i type="int" name="IALGO">    38</i>
   <i type="int" name="IWAVPR">    11</i>
   <i type="int" name="NBANDS">    68</i>
   <i name="NELECT">    109.00000000</i>
   <i type="int" name="TURBO">     0</i>
   <i type="int" name="IRESTART">     0</i>
   <i type="int" name="NREBOOT">     0</i>
   <i type="int" name="NMIN">     0</i>
   <i name="EREF">      0.00000000</i>
   <separator name="electronic smearing" >
    <i type="int" name="ISMEAR">     0</i>
    <i name="SIGMA">      0.10000000</i>
    <i name="KSPACING">      0.50000000</i>
    <i type="logical" name="KGAMMA"> T  </i>
   </separator>
   <separator name="electronic projectors" >
    <i type="logical" name="LREAL"> F  </i>
    <v name="ROPT">      0.00000000      0.00000000</v>
    <i type="int" name="LMAXPAW">  -100</i>
    <i type="int" name="LMAXMIX">     2</i>
    <i type="logical" name="NLSPLINE"> F  </i>
   </separator>
   <separator name="electronic startup" >
    <i type="int" name="ISTART">     0</i>
    <i type="int" name="ICHARG">     2</i>
    <i type="int" name="INIWAV">     1</i>
   </separator>
   <separator name="electronic spin" >
    <i type="int" name="ISPIN">     1</i>
    <i type="logical" name="LNONCOLLINEAR"> F  </i>
    <v name="MAGMOM">      1.00000000      1.00000000      1.00000000      1.00000000      1.00000000      1.00000000      1.00000000      1.00000000      1.00000000      1.00000000      1.00000000      1.00000000      1.00000000      1.00000000      1.00000000      1.00000000      1.00000000      1.00000000      1.00000000      1.00000000
</v>
    <i name="NUPDOWN">     -1.00000000</i>
    <i type="logical" name="LSORBIT"> F  </i>
    <v name="SAXIS">      0.00000000      0.00000000      1.00000000</v>
    <i type="logical" name="LSPIRAL"> F  </i>
    <v name="QSPIRAL">      0.00000000      0.00000000      0.00000000</v>
    <i type="logical" name="LZEROZ"> F  </i>
   </separator>
   <separator name="electronic exchange-correlation" >
    <i type="logical" name="LASPH"> F  </i>
    <i type="logical" name="LMETAGGA"> F  </i>
   </separator>
   <separator name="electronic convergence" >
    <i type="int" name="NELM">    60</i>
    <i type="int" name="NELMDL">    -5</i>
    <i type="int" name="NELMIN">     2</i>
    <i name="ENINI">    267.88200000</i>
    <separator name="electronic convergence detail" >
     <i type="logical" name="LDIAG"> T  </i>
     <i type="logical" name="LSUBROT"> F  </i>
     <i name="WEIMIN">      0.00100000</i>
     <i name="EBREAK">      0.00000004</i>
     <i name="DEPER">      0.30000000</i>
     <i type="int" name="NRMM">     4</i>
     <i name="TIME">      0.40000000</i>
    </separator>
   </separator>
   <separator name="electronic mixer" >
    <i name="AMIX">      0.40000000</i>
    <i name="BMIX">      1.00000000</i>
    <i name="AMIN">      0.10000000</i>
    <i name="AMIX_MAG">      1.60000000</i>
    <i name="BMIX_MAG">      1.00000000</i>
    <separator name="electronic mixer details" >
     <i type="int" name="IMIX">     4</i>
     <i type="logical" name="MIXFIRST"> F  </i>
     <i type="int" name="MAXMIX">   -45</i>
     <i name="WC">    100.00000000</i>
     <i type="int" name="INIMIX">     1</i>
     <i type="int" name="MIXPRE">     1</i>
     <i type="int" name="MREMOVE">     5</i>
    </separator>
   </separator>
   <separator name="electronic dipolcorrection" >
    <i type="logical" name="LDIPOL"> F  </i>
    <i type="logical" name="LMONO"> F  </i>
    <i type="int" name="IDIPOL">     0</i>
    <i name="EPSILON">      1.00000000</i>
    <v name="DIPOL">   -100.00000000   -100.00000000   -100.00000000</v>
    <i name="EFIELD">      0.00000000</i>
   </separator>
  </separator>
  <separator name="grids" >
   <i type="int" name="NGX">    28</i>
   <i type="int" name="NGY">    40</i>
   <i type="int" name="NGZ">    18</i>
   <i type="int" name="NGXF">    56</i>
   <i type="int" name="NGYF">    80</i>
   <i type="int" name="NGZF">    36</i>
   <i type="logical" name="ADDGRID"> F  </i>
  </separator>
  <separator name="ionic" >
   <i type="int" name="NSW">   500</i>
   <i type="int" name="IBRION">     2</i>
   <i type="int" name="MDALGO">     0</i>
   <i type="int" name="ISIF">     3</i>
   <i name="PSTRESS">      0.00000000</i>
   <i name="EDIFFG">     -0.01000000</i>
   <i type="int" name="NFREE">     1</i>
   <i name="POTIM">      0.50000000</i>
   <i name="SMASS">     -3.00000000</i>
   <i name="SCALEE">      1.00000000</i>
  </separator>
  <separator name="ionic md" >
   <i name="TEBEG">      0.00010000</i>
   <i name="TEEND">      0.00010000</i>
   <i type="int" name="NBLOCK">     1</i>
   <i type="int" name="KBLOCK">   500</i>
   <i type="int" name="NPACO">   256</i>
   <i name="APACO">     16.00000000</i>
  </separator>
  <separator name="symmetry" >
   <i type="int" name="ISYM">     2</i>
   <i name="SYMPREC">      0.00001000</i>
  </separator>
  <separator name="dos" >
   <i type="int" name="LORBIT">     0</i>
   <v name="RWIGS">     -1.00000000     -1.00000000</v>
   <i type="int" name="NEDOS">   301</i>
   <i name="EMIN">     10.00000000</i>
   <i name="EMAX">    -10.00000000</i>
   <i name="EFERMI">      0.00000000</i>
  </separator>
  <separator name="writing" >
   <i type="int" name="NWRITE">     2</i>
   <i type="logical" name="LWAVE"> F  </i>
   <i type="logical" name="LDOWNSAMPLE"> F  </i>
   <i type="logical" name="LCHARG"> F  </i>
   <i type="logical" name="LPARD"> F  </i>
   <i type="logical" name="LVTOT"> F  </i>
   <i type="logical" name="LVHAR"> F  </i>
   <i type="logical" name="LELF"> F  </i>
   <i type="logical" name="LOPTICS"> F  </i>
   <v name="STM">      0.00000000      0.00000000      0.00000000      0.00000000      0.00000000      0.00000000      0.00000000</v>
  </separator>
  <separator name="performance" >
   <i type="int" name="NPAR">     4</i>
   <i type="int" name="NSIM">     4</i>
   <i type="int" name="NBLK">    -1</i>
   <i type="logical" name="LPLANE"> T  </i>
   <i type="logical" name="LSCALAPACK"> T  </i>
   <i type="logical" name="LSCAAWARE"> F  </i>
   <i type="logical" name="LSCALU"> F  </i>
   <i type="logical" name="LASYNC"> F  </i>
   <i type="logical" name="LORBITALREAL"> F  </i>
  </separator>
  <separator name="miscellaneous" >
   <i type="int" name="IDIOT">     3</i>
   <i type="int" name="ISPECIAL">     0</i>
   <i type="logical" name="LMUSIC"> F  </i>
   <v name="POMASS">     50.94100000     55.84700000</v>
   <v name="DARWINR">      0.00000000      0.00000000</v>
   <v name="DARWINV">      1.00000000      1.00000000</v>
   <i type="logical" name="LCORR"> T  </i>
  </separator>
  <i type="logical" name="GGA_COMPAT"> T  </i>
  <i type="logical" name="LBERRY"> F  </i>
  <i type="int" name="ICORELEVEL">     0</i>
  <i type="logical" name="LDAU"> F  </i>
  <i type="int" name="I_CONSTRAINED_M">     0</i>
  <separator name="electronic exchange-correlation" >
   <i type="string" name="GGA">--</i>
   <i type="int" name="VOSKOWN">     0</i>
   <i type="logical" name="LHFCALC"> F  </i>
   <i type="string" name="PRECFOCK"></i>
   <i type="logical" name="LSYMGRAD"> F  </i>
   <i type="logical" name="LHFONE"> F  </i>
   <i type="logical" name="LRHFCALC"> F  </i>
   <i type="logical" name="LTHOMAS"> F  </i>
   <i type="logical" name="LMODELHF"> F  </i>
   <i name="ENCUT4O">     -1.00000000</i>
   <i type="int" name="EXXOEP">     0</i>
   <i type="int" name="FOURORBIT">     0</i>
   <i name="AEXX">      0.00000000</i>
   <i name="HFALPHA">      0.00000000</i>
   <i name="MCALPHA">      0.00000000</i>
   <i name="ALDAX">      1.00000000</i>
   <i name="AGGAX">      1.00000000</i>
   <i name="ALDAC">      1.00000000</i>
   <i name="AGGAC">      1.00000000</i>
   <i type="int" name="NKREDX">     1</i>
   <i type="int" name="NKREDY">     1</i>
   <i type="int" name="NKREDZ">     1</i>
   <i type="logical" name="SHIFTRED"> F  </i>
   <i type="logical" name="ODDONLY"> F  </i>
   <i type="logical" name="EVENONLY"> F  </i>
   <i type="int" name="LMAXFOCK">     0</i>
   <i type="int" name="NMAXFOCKAE">     0</i>
   <i type="logical" name="LFOCKAEDFT"> F  </i>
   <i name="HFSCREEN">      0.00000000</i>
   <i name="HFSCREENC">      0.00000000</i>
   <i type="int" name="NBANDSGWLOW">     0</i>
  </separator>
  <separator name="vdW DFT" >
   <i type="logical" name="LUSE_VDW"> F  </i>
   <i name="Zab_VDW">     -0.84910000</i>
   <i name="PARAM1">      0.12340000</i>
   <i name="PARAM2">      1.00000000</i>
   <i name="PARAM3">      0.00000000</i>
  </separator>
  <separator name="model GW" >
   <i type="int" name="MODEL_GW">     0</i>
   <i name="MODEL_EPS0">      7.77216032</i>
   <i name="MODEL_ALPHA">      1.00000000</i>
  </separator>
  <separator name="linear response parameters" >
   <i type="logical" name="LEPSILON"> F  </i>
   <i type="logical" name="LRPA"> F  </i>
   <i type="logical" name="LNABLA"> F  </i>
   <i type="logical" name="LVEL"> F  </i>
   <i type="int" name="KINTER">     0</i>
   <i name="CSHIFT">      0.10000000</i>
   <i name="OMEGAMAX">     -1.00000000</i>
   <i name="DEG_THRESHOLD">      0.00200000</i>
   <i name="RTIME">     -0.10000000</i>
   <i name="WPLASMAI">      0.00000000</i>
   <v name="DFIELD">      0.00000000      0.00000000      0.00000000</v>
   <v name="WPLASMA">      0.00000000      0.00000000      0.00000000      0.00000000      0.00000000      0.00000000      0.00000000      0.00000000      0.00000000</v>
  </separator>
  <separator name="orbital magnetization" >
   <i type="logical" name="NUCIND"> F  </i>
   <v name="MAGPOS">      0.00000000      0.00000000      0.00000000</v>
   <i type="logical" name="LNICSALL"> T  </i>
   <i type="logical" name="ORBITALMAG"> F  </i>
   <i type="logical" name="LMAGBLOCH"> F  </i>
   <i type="logical" name="LCHIMAG"> F  </i>
   <i type="logical" name="LGAUGE"> T  </i>
   <i type="int" name="MAGATOM">     0</i>
   <v name="MAGDIPOL">      0.00000000      0.00000000      0.00000000</v>
   <v name="AVECCONST">      0.00000000      0.00000000      0.00000000</v>
  </separator>
  <separator name="response functions" >
   <i type="logical" name="LADDER"> F  </i>
   <i type="logical" name="LRPAFORCE"> F  </i>
   <i type="logical" name="LFXC"> F  </i>
   <i type="logical" name="LHARTREE"> T  </i>
   <i type="int" name="IBSE">     0</i>
   <v type="int" name="KPOINT">    -1     0     0     0</v>
   <i type="logical" name="LTCTE"> F  </i>
   <i type="logical" name="LTETE"> F  </i>
   <i type="logical" name="LTRIPLET"> F  </i>
   <i type="logical" name="LFXCEPS"> F  </i>
   <i type="logical" name="LFXHEG"> F  </i>
   <i type="int" name="NATURALO">     2</i>
   <i type="logical" name="L2ORDER"> F  </i>
   <i type="logical" name="LMP2LT"> F  </i>
   <i type="logical" name="LUSEW"> F  </i>
   <i name="ENCUTGW">     -2.00000000</i>
   <i name="ENCUTGWSOFT">     -2.00000000</i>
   <i name="ENCUTLF">     -1.00000000</i>
   <i type="int" name="LMAXMP2">    -1</i>
   <i name="SCISSOR">      0.00000000</i>
   <i type="int" name="NOMEGA">     0</i>
   <i type="int" name="NOMEGAR">     0</i>
   <i type="int" name="NBANDSGW">    -1</i>
   <i type="int" name="NBANDSO">    -1</i>
   <i type="int" name="NBANDSV">    -1</i>
   <i type="int" name="NELM">     1</i>
   <i type="int" name="NELMHF">     1</i>
   <i type="int" name="DIM">     3</i>
   <i type="int" name="ANTIRES">     0</i>
   <i name="OMEGAMAX">    -30.00000000</i>
   <i name="OMEGAMIN">    -30.00000000</i>
   <i name="OMEGATL">   -200.00000000</i>
   <i type="int" name="OMEGAGRID">   140</i>
   <i name="CSHIFT">     -0.10000000</i>
   <i type="logical" name="SELFENERGY"> F  </i>
   <i type="logical" name="LSPECTRAL"> F  </i>
   <i type="logical" name="LSPECTRALGW"> F  </i>
   <i type="logical" name="LSINGLES"> F  </i>
   <i type="logical" name="LFERMIGW"> F  </i>
   <i type="logical" name="ODDONLYGW"> F  </i>
   <i type="logical" name="EVENONLYGW"> F  </i>
   <i type="int" name="NKREDLFX">     1</i>
   <i type="int" name="NKREDLFY">     1</i>
   <i type="int" name="NKREDLFZ">     1</i>
   <i type="int" name="MAXMEM">  2800</i>
   <i type="int" name="TELESCOPE">     0</i>
   <i type="int" name="TAUPAR">     1</i>
   <i type="int" name="OMEGAPAR">    -1</i>
   <i name="LAMBDA">      1.00000000</i>
  </separator>
  <separator name="External order field" >
   <i name="OFIELD_KAPPA">      0.00000000</i>
   <v name="OFIELD_K">      0.00000000      0.00000000      0.00000000</v>
   <i name="OFIELD_Q6_NEAR">      0.00000000</i>
   <i name="OFIELD_Q6_FAR">      0.00000000</i>
   <i name="OFIELD_A">      0.00000000</i>
  </separator>
 </parameters>
 <atominfo>
  <atoms>      20 </atoms>
  <types>       2 </types>
  <array name="atoms" >
   <dimension dim="1">ion</dimension>
   <field type="string">element</field>
   <field type="int">atomtype</field>
   <set>
    <rc><c>V </c><c>   1</c></rc>
    <rc><c>V </c><c>   1</c></rc>
    <rc><c>V </c><c>   1</c></rc>
    <rc><c>V </c><c>   1</c></rc>
    <rc><c>V </c><c>   1</c></rc>
    <rc><c>V </c><c>   1</c></rc>
    <rc><c>V </c><c>   1</c></rc>
    <rc><c>V </c><c>   1</c></rc>
    <rc><c>V </c><c>   1</c></rc>
    <rc><c>V </c><c>   1</c></rc>
    <rc><c>V </c><c>   1</c></rc>
    <rc><c>V </c><c>   1</c></rc>
    <rc><c>V </c><c>   1</c></rc>
    <rc><c>V </c><c>   1</c></rc>
    <rc><c>V </c><c>   1</c></rc>
    <rc><c>V </c><c>   1</c></rc>
    <rc><c>V </c><c>   1</c></rc>
    <rc><c>Fe</c><c>   2</c></rc>
    <rc><c>Fe</c><c>   2</c></rc>
    <rc><c>Fe</c><c>   2</c></rc>
   </set>
  </array>
  <array name="atomtypes" >
   <dimension dim="1">type</dimension>
   <field type="int">atomspertype</field>
   <field type="string">element</field>
   <field>mass</field>
   <field>valence</field>
   <field type="string">pseudopotential</field>
   <set>
    <rc><c>  17</c><c>V </c><c>     50.94100000</c><c>      5.00000000</c><c>  PAW_PBE V 08Apr2002                   </c></rc>
    <rc><c>   3</c><c>Fe</c><c>     55.84700000</c><c>      8.00000000</c><c>  PAW_PBE Fe 06Sep2000                  </c></rc>
   </set>
  </array>
 </atominfo>
 <structure name="initialpos" >
  <crystal>
   <varray name="basis" >
    <v>       6.36966800       0.00000000       0.00000000 </v>
    <v>      -1.68402500       9.48708500       0.00000000 </v>
    <v>       0.00006500      -0.00042000       4.28717200 </v>
   </varray>
   <i name="volume">    259.07201080 </i>
   <varray name="rec_basis" >
    <v>       0.15699405       0.02786756       0.00000035 </v>
    <v>       0.00000000       0.10540646       0.00001033 </v>
    <v>       0.00000000       0.00000000       0.23325400 </v>
   </varray>
  </crystal>
  <varray name="positions" >
   <v>       0.76727300       0.26903500       0.41114300 </v>
   <v>       0.96889500       0.06369700       0.41194300 </v>
   <v>       0.35998400       0.16395400       0.41133900 </v>
   <v>       0.06865900       0.21602400       0.91129400 </v>
   <v>       0.65954700       0.11729200       0.91135700 </v>
   <v>       0.56937100       0.62382200       0.97426600 </v>
   <v>       0.96412000       0.72413700       0.97408000 </v>
   <v>       0.26285500       0.67279500       0.47408700 </v>
   <v>       0.46891500       0.97510600       0.47461500 </v>
   <v>       0.67361500       0.77525500       0.47429200 </v>
   <v>       0.16989600       0.52406200       0.97407100 </v>
   <v>       0.36132600       0.32326600       0.97454900 </v>
   <v>       0.37771800       0.82452500       0.97428700 </v>
   <v>       0.47627500       0.47506800       0.47436500 </v>
   <v>       0.77500100       0.42388800       0.97470300 </v>
   <v>       0.06779300       0.87453100       0.47428200 </v>
   <v>       0.06543900       0.37267700       0.47438500 </v>
   <v>       0.26729600       0.02376600       0.91257300 </v>
   <v>       0.77184000       0.92324900       0.97446900 </v>
   <v>       0.86967700       0.57399100       0.47429000 </v>
  </varray>
 </structure>
 <calculation>
  <scstep>
   <time name="dav">    1.41    1.41</time>
   <time name="total">    1.46    1.46</time>
   <energy>
    <i name="alphaZ">    552.45272323 </i>
    <i name="ewald">  -5256.21967043 </i>
    <i name="hartreedc">   -830.07595355 </i>
    <i name="XCdc">   -770.72374083 </i>
    <i name="pawpsdc">   5171.05454107 </i>
    <i name="pawaedc">  -4356.08836938 </i>
    <i name="eentropy">     -0.05435382 </i>
    <i name="bandstr">   1444.87840998 </i>
    <i name="atom">   4687.48422623 </i>
    <i name="e_fr_energy">    642.70781250 </i>
    <i name="e_wo_entrp">    642.76216632 </i>
    <i name="e_0_energy">    642.73498941 </i>
   </energy>
  </scstep>
  <scstep>
   <time name="dav">    1.40    1.40</time>
   <time name="total">    1.40    1.40</time>
   <energy>
    <i name="e_fr_energy">    -66.54048224 </i>
    <i name="e_wo_entrp">    -66.47028543 </i>
    <i name="e_0_energy">    -66.50538384 </i>
   </energy>
  </scstep>
  <scstep>
   <time name="dav">    2.04    2.05</time>
   <time name="total">    2.04    2.05</time>
   <energy>
    <i name="e_fr_energy">   -187.60122959 </i>
    <i name="e_wo_entrp">   -187.53123278 </i>
    <i name="e_0_energy">   -187.56623119 </i>
   </energy>
  </scstep>
  <scstep>
   <time name="dav">    1.99    2.00</time>
   <time name="total">    2.00    2.00</time>
   <energy>
    <i name="e_fr_energy">   -199.73181757 </i>
    <i name="e_wo_entrp">   -199.64104545 </i>
    <i name="e_0_energy">   -199.68643151 </i>
   </energy>
  </scstep>
  <scstep>
   <time name="dav">    2.08    2.08</time>
   <time name="total">    2.13    2.14</time>
   <energy>
    <i name="e_fr_energy">   -200.42918330 </i>
    <i name="e_wo_entrp">   -200.33783326 </i>
    <i name="e_0_energy">   -200.38350828 </i>
   </energy>
  </scstep>
  <scstep>
   <time name="dav">    2.47    2.47</time>
   <time name="total">    2.58    2.58</time>
   <energy>
    <i name="e_fr_energy">   -224.97350418 </i>
    <i name="e_wo_entrp">   -224.87257777 </i>
    <i name="e_0_energy">   -224.92304098 </i>
   </energy>
  </scstep>
  <scstep>
   <time name="dav">    2.34    2.35</time>
   <time name="total">    2.45    2.45</time>
   <energy>
    <i name="e_fr_energy">   -182.50577388 </i>
    <i name="e_wo_entrp">   -182.40098170 </i>
    <i name="e_0_energy">   -182.45337779 </i>
   </energy>
  </scstep>
  <scstep>
   <time name="dav">    2.36    2.36</time>
   <time name="total">    2.47    2.47</time>
   <energy>
    <i name="e_fr_energy">   -182.31451956 </i>
    <i name="e_wo_entrp">   -182.20018854 </i>
    <i name="e_0_energy">   -182.25735405 </i>
   </energy>
  </scstep>
  <scstep>
   <time name="dav">    2.41    2.41</time>
   <time name="total">    2.51    2.52</time>
   <energy>
    <i name="e_fr_energy">   -176.03649882 </i>
    <i name="e_wo_entrp">   -175.91124883 </i>
    <i name="e_0_energy">   -175.97387383 </i>
   </energy>
  </scstep>
  <scstep>
   <time name="dav">    2.39    2.39</time>
   <time name="total">    2.49    2.49</time>
   <energy>
    <i name="e_fr_energy">   -174.95147413 </i>
    <i name="e_wo_entrp">   -174.83357581 </i>
    <i name="e_0_energy">   -174.89252497 </i>
   </energy>
  </scstep>
  <scstep>
   <time name="dav">    2.22    2.23</time>
   <time name="total">    2.32    2.33</time>
   <energy>
    <i name="e_fr_energy">   -174.58895585 </i>
    <i name="e_wo_entrp">   -174.47410002 </i>
    <i name="e_0_energy">   -174.53152794 </i>
   </energy>
  </scstep>
  <scstep>
   <time name="dav">    2.31    2.32</time>
   <time name="total">    2.42    2.42</time>
   <energy>
    <i name="e_fr_energy">   -174.79670022 </i>
    <i name="e_wo_entrp">   -174.67844512 </i>
    <i name="e_0_energy">   -174.73757267 </i>
   </energy>
  </scstep>
  <scstep>
   <time name="dav">    2.40    2.41</time>
   <time name="total">    2.51    2.52</time>
   <energy>
    <i name="e_fr_energy">   -174.44655545 </i>
    <i name="e_wo_entrp">   -174.33258658 </i>
    <i name="e_0_energy">   -174.38957102 </i>
   </energy>
  </scstep>
  <scstep>
   <time name="dav">    2.35    2.35</time>
   <time name="total">    2.45    2.46</time>
   <energy>
    <i name="e_fr_energy">   -174.56828647 </i>
    <i name="e_wo_entrp">   -174.44958888 </i>
    <i name="e_0_energy">   -174.50893768 </i>
   </energy>
  </scstep>
  <scstep>
   <time name="dav">    2.33    2.33</time>
   <time name="total">    2.43    2.43</time>
   <energy>
    <i name="e_fr_energy">   -174.41571427 </i>
    <i name="e_wo_entrp">   -174.29439925 </i>
    <i name="e_0_energy">   -174.35505676 </i>
   </energy>
  </scstep>
  <scstep>
   <time name="dav">    2.32    2.33</time>
   <time name="total">    2.43    2.43</time>
   <energy>
    <i name="e_fr_energy">   -174.31872882 </i>
    <i name="e_wo_entrp">   -174.20064501 </i>
    <i name="e_0_energy">   -174.25968692 </i>
   </energy>
  </scstep>
  <scstep>
   <time name="dav">    1.96    1.96</time>
   <time name="total">    2.07    2.07</time>
   <energy>
    <i name="e_fr_energy">   -174.31820490 </i>
    <i name="e_wo_entrp">   -174.19997738 </i>
    <i name="e_0_energy">   -174.25909114 </i>
   </energy>
  </scstep>
  <scstep>
   <time name="dav">    2.19    2.19</time>
   <time name="total">    2.29    2.29</time>
   <energy>
    <i name="e_fr_energy">   -174.31123455 </i>
    <i name="e_wo_entrp">   -174.19357013 </i>
    <i name="e_0_energy">   -174.25240234 </i>
   </energy>
  </scstep>
  <scstep>
   <time name="dav">    1.95    1.96</time>
   <time name="total">    2.05    2.06</time>
   <energy>
    <i name="e_fr_energy">   -174.31085900 </i>
    <i name="e_wo_entrp">   -174.19367238 </i>
    <i name="e_0_energy">   -174.25226569 </i>
   </energy>
  </scstep>
  <scstep>
   <time name="dav">    2.14    2.14</time>
   <time name="total">    2.24    2.24</time>
   <energy>
    <i name="e_fr_energy">   -174.30747972 </i>
    <i name="e_wo_entrp">   -174.19019160 </i>
    <i name="e_0_energy">   -174.24883566 </i>
   </energy>
  </scstep>
  <scstep>
   <time name="dav">    2.00    2.00</time>
   <time name="total">    2.10    2.10</time>
   <energy>
    <i name="e_fr_energy">   -174.30734115 </i>
    <i name="e_wo_entrp">   -174.19003218 </i>
    <i name="e_0_energy">   -174.24868666 </i>
   </energy>
  </scstep>
  <scstep>
   <time name="dav">    2.12    2.12</time>
   <time name="total">    2.23    2.23</time>
   <energy>
    <i name="e_fr_energy">   -174.30714714 </i>
    <i name="e_wo_entrp">   -174.18996508 </i>
    <i name="e_0_energy">   -174.24855611 </i>
   </energy>
  </scstep>
  <scstep>
   <time name="dav">    2.08    2.08</time>
   <time name="total">    2.18    2.19</time>
   <energy>
    <i name="e_fr_energy">   -174.30717418 </i>
    <i name="e_wo_entrp">   -174.19005669 </i>
    <i name="e_0_energy">   -174.24861543 </i>
   </energy>
  </scstep>
  <scstep>
   <time name="dav">    2.11    2.12</time>
   <time name="total">    2.22    2.22</time>
   <energy>
    <i name="e_fr_energy">   -174.30706052 </i>
    <i name="e_wo_entrp">   -174.18995952 </i>
    <i name="e_0_energy">   -174.24851002 </i>
   </energy>
  </scstep>
  <scstep>
   <time name="dav">    2.28    2.29</time>
   <time name="total">    2.38    2.39</time>
   <energy>
    <i name="e_fr_energy">   -174.30705536 </i>
    <i name="e_wo_entrp">   -174.18996671 </i>
    <i name="e_0_energy">   -174.24851104 </i>
   </energy>
  </scstep>
  <scstep>
   <time name="dav">    1.36    1.37</time>
   <time name="total">    1.47    1.47</time>
   <energy>
    <i name="e_fr_energy">   -174.30704117 </i>
    <i name="e_wo_entrp">   -174.18995422 </i>
    <i name="e_0_energy">   -174.24849770 </i>
   </energy>
  </scstep>
  <scstep>
   <time name="dav">    1.02    1.02</time>
   <time name="total">    1.07    1.07</time>
   <energy>
    <i name="alphaZ">    552.45272323 </i>
    <i name="ewald">  -5256.21967043 </i>
    <i name="hartreedc">   -672.33290995 </i>
    <i name="XCdc">   -769.23563792 </i>
    <i name="pawpsdc">   7778.66862735 </i>
    <i name="pawaedc">  -6975.58787914 </i>
    <i name="eentropy">     -0.11709948 </i>
    <i name="bandstr">    480.58057927 </i>
    <i name="atom">   4687.48422623 </i>
    <i name="e_fr_energy">   -174.30704085 </i>
    <i name="e_wo_entrp">   -174.18994137 </i>
    <i name="e_0_energy">   -174.24849111 </i>
   </energy>
  </scstep>
  <structure>
   <crystal>
    <varray name="basis" >
     <v>       6.36966800       0.00000000       0.00000000 </v>
     <v>      -1.68402500       9.48708500       0.00000000 </v>
     <v>       0.00006500      -0.00042000       4.28717200 </v>
    </varray>
    <i name="volume">    259.07201080 </i>
    <varray name="rec_basis" >
     <v>       0.15699405       0.02786756       0.00000035 </v>
     <v>       0.00000000       0.10540646       0.00001033 </v>
     <v>       0.00000000       0.00000000       0.23325400 </v>
    </varray>
   </crystal>
   <varray name="positions" >
    <v>       0.76727300       0.26903500       0.41114300 </v>
    <v>       0.96889500       0.06369700       0.41194300 </v>
    <v>       0.35998400       0.16395400       0.41133900 </v>
    <v>       0.06865900       0.21602400       0.91129400 </v>
    <v>       0.65954700       0.11729200       0.91135700 </v>
    <v>       0.56937100       0.62382200       0.97426600 </v>
    <v>       0.96412000       0.72413700       0.97408000 </v>
    <v>       0.26285500       0.67279500       0.47408700 </v>
    <v>       0.46891500       0.97510600       0.47461500 </v>
    <v>       0.67361500       0.77525500       0.47429200 </v>
    <v>       0.16989600       0.52406200       0.97407100 </v>
    <v>       0.36132600       0.32326600       0.97454900 </v>
    <v>       0.37771800       0.82452500       0.97428700 </v>
    <v>       0.47627500       0.47506800       0.47436500 </v>
    <v>       0.77500100       0.42388800       0.97470300 </v>
    <v>       0.06779300       0.87453100       0.47428200 </v>
    <v>       0.06543900       0.37267700       0.47438500 </v>
    <v>       0.26729600       0.02376600       0.91257300 </v>
    <v>       0.77184000       0.92324900       0.97446900 </v>
    <v>       0.86967700       0.57399100       0.47429000 </v>
   </varray>
  </structure>
  <varray name="forces" >
   <v>      -2.58605398      -1.08781046       0.47379262 </v>
   <v>      -2.15752293       0.30226142      -0.11782917 </v>
   <v>      -0.78983502       1.31735370       0.43957746 </v>
   <v>      -2.70901124      -0.68305598       0.71966454 </v>
   <v>      -0.56640750       0.54033482       0.70213825 </v>
   <v>      -0.30165713      -0.18140904       0.12234781 </v>
   <v>       0.31829565      -0.26497021       0.08728847 </v>
   <v>      -0.17647344       0.37380295       0.04125854 </v>
   <v>       3.05203533      -0.89454903      -1.52243767 </v>
   <v>      -0.07007474       0.14502362       0.10896671 </v>
   <v>      -0.44611737       0.54391842       0.18102168 </v>
   <v>       2.94096063       0.93106650      -0.54009026 </v>
   <v>       0.53887591      -0.63722567       0.02169543 </v>
   <v>       0.39331347      -0.04885236      -0.15447604 </v>
   <v>       0.38666392      -0.02221234      -0.69183915 </v>
   <v>       0.87527874      -0.94225352      -0.12476708 </v>
   <v>       2.48371439       0.92046108      -0.73538607 </v>
   <v>      -1.85868134       0.16473709       1.25048050 </v>
   <v>       0.89070759      -0.75041323      -0.24535182 </v>
   <v>      -0.21801091       0.27379224      -0.01605475 </v>
  </varray>
  <varray name="stress" >
   <v>     -10.11230228     -23.46496139      12.48186576 </v>
   <v>     -23.46496134      18.23856535      -8.29208628 </v>
   <v>      12.48186567      -8.29208641     -21.23739234 </v>
  </varray>
  <energy>
   <i name="e_fr_energy">   -174.30704085 </i>
   <i name="e_wo_entrp">   -174.24849111 </i>
   <i name="e_0_energy">     -0.11709948 </i>
  </energy>
  <time name="totalsc">   61.07   61.16</time>
 </calculation>
 <calculation>
  <scstep>
   <time name="dav">    1.32    1.32</time>
   <time name="total">    1.42    1.43</time>
   <energy>
    <i name="alphaZ">    555.38797168 </i>
    <i name="ewald">  -5303.69505357 </i>
    <i name="hartreedc">   -651.05919942 </i>
    <i name="XCdc">   -768.80510229 </i>
    <i name="pawpsdc">   7778.73229414 </i>
    <i name="pawaedc">  -6975.64865331 </i>
    <i name="eentropy">     -0.11474197 </i>
    <i name="bandstr">    500.80513133 </i>
    <i name="atom">   4687.48422623 </i>
    <i name="e_fr_energy">   -176.91312717 </i>
    <i name="e_wo_entrp">   -176.79838520 </i>
    <i name="e_0_energy">   -176.85575619 </i>
   </energy>
  </scstep>
  <scstep>
   <time name="dav">    2.39    2.39</time>
   <time name="total">    2.49    2.49</time>
   <energy>
    <i name="e_fr_energy">   -192.38301763 </i>
    <i name="e_wo_entrp">   -192.25032623 </i>
    <i name="e_0_energy">   -192.31667193 </i>
   </energy>
  </scstep>
  <scstep>
   <time name="dav">    2.17    2.18</time>
   <time name="total">    2.27    2.28</time>
   <energy>
    <i name="e_fr_energy">   -177.04900745 </i>
    <i name="e_wo_entrp">   -176.93501630 </i>
    <i name="e_0_energy">   -176.99201188 </i>
   </energy>
  </scstep>
  <scstep>
   <time name="dav">    1.97    1.97</time>
   <time name="total">    2.06    2.06</time>
   <energy>
    <i name="e_fr_energy">   -176.82005980 </i>
    <i name="e_wo_entrp">   -176.69906104 </i>
    <i name="e_0_energy">   -176.75956042 </i>
   </energy>
  </scstep>
  <scstep>
   <time name="dav">    1.99    1.99</time>
   <time name="total">    2.09    2.09</time>
   <energy>
    <i name="e_fr_energy">   -176.86402669 </i>
    <i name="e_wo_entrp">   -176.74864465 </i>
    <i name="e_0_energy">   -176.80633567 </i>
   </energy>
  </scstep>
  <scstep>
   <time name="dav">    2.04    2.05</time>
   <time name="total">    2.14    2.15</time>
   <energy>
    <i name="e_fr_energy">   -176.77936831 </i>
    <i name="e_wo_entrp">   -176.65996680 </i>
    <i name="e_0_energy">   -176.71966755 </i>
   </energy>
  </scstep>
  <scstep>
   <time name="dav">    2.39    2.39</time>
   <time name="total">    2.49    2.50</time>
   <energy>
    <i name="e_fr_energy">   -176.87860983 </i>
    <i name="e_wo_entrp">   -176.75748825 </i>
    <i name="e_0_energy">   -176.81804904 </i>
   </energy>
  </scstep>
  <scstep>
   <time name="dav">    2.31    2.31</time>
   <time name="total">    2.41    2.41</time>
   <energy>
    <i name="e_fr_energy">   -176.77373009 </i>
    <i name="e_wo_entrp">   -176.65442480 </i>
    <i name="e_0_energy">   -176.71407744 </i>
   </energy>
  </scstep>
  <scstep>
   <time name="dav">    2.38    2.38</time>
   <time name="total">    2.48    2.48</time>
   <energy>
    <i name="e_fr_energy">   -176.72303036 </i>
    <i name="e_wo_entrp">   -176.60568354 </i>
    <i name="e_0_energy">   -176.66435695 </i>
   </energy>
  </scstep>
  <scstep>
   <time name="dav">    2.02    2.02</time>
   <time name="total">    2.12    2.12</time>
   <energy>
    <i name="e_fr_energy">   -176.72175638 </i>
    <i name="e_wo_entrp">   -176.60350354 </i>
    <i name="e_0_energy">   -176.66262996 </i>
   </energy>
  </scstep>
  <scstep>
   <time name="dav">    2.13    2.13</time>
   <time name="total">    2.23    2.24</time>
   <energy>
    <i name="e_fr_energy">   -176.71213871 </i>
    <i name="e_wo_entrp">   -176.59374239 </i>
    <i name="e_0_energy">   -176.65294055 </i>
   </energy>
  </scstep>
  <scstep>
   <time name="dav">    1.91    1.91</time>
   <time name="total">    2.01    2.01</time>
   <energy>
    <i name="e_fr_energy">   -176.71375240 </i>
    <i name="e_wo_entrp">   -176.59537026 </i>
    <i name="e_0_energy">   -176.65456133 </i>
   </energy>
  </scstep>
  <scstep>
   <time name="dav">    2.02    2.02</time>
   <time name="total">    2.12    2.12</time>
   <energy>
    <i name="e_fr_energy">   -176.71201789 </i>
    <i name="e_wo_entrp">   -176.59368845 </i>
    <i name="e_0_energy">   -176.65285317 </i>
   </energy>
  </scstep>
  <scstep>
   <time name="dav">    2.28    2.29</time>
   <time name="total">    2.38    2.39</time>
   <energy>
    <i name="e_fr_energy">   -176.71222994 </i>
    <i name="e_wo_entrp">   -176.59370230 </i>
    <i name="e_0_energy">   -176.65296612 </i>
   </energy>
  </scstep>
  <scstep>
   <time name="dav">    2.35    2.36</time>
   <time name="total">    2.46    2.46</time>
   <energy>
    <i name="e_fr_energy">   -176.71206630 </i>
    <i name="e_wo_entrp">   -176.59368148 </i>
    <i name="e_0_energy">   -176.65287389 </i>
   </energy>
  </scstep>
  <scstep>
   <time name="dav">    2.34    2.35</time>
   <time name="total">    2.45    2.45</time>
   <energy>
    <i name="e_fr_energy">   -176.71202097 </i>
    <i name="e_wo_entrp">   -176.59367654 </i>
    <i name="e_0_energy">   -176.65284875 </i>
   </energy>
  </scstep>
  <scstep>
   <time name="dav">    1.78    1.78</time>
   <time name="total">    1.88    1.88</time>
   <energy>
    <i name="e_fr_energy">   -176.71200431 </i>
    <i name="e_wo_entrp">   -176.59363598 </i>
    <i name="e_0_energy">   -176.65282015 </i>
   </energy>
  </scstep>
  <scstep>
   <time name="dav">    1.29    1.29</time>
   <time name="total">    1.34    1.34</time>
   <energy>
    <i name="alphaZ">    555.38797168 </i>
    <i name="ewald">  -5303.69505357 </i>
    <i name="hartreedc">   -638.44860571 </i>
    <i name="XCdc">   -768.98611160 </i>
    <i name="pawpsdc">   7683.18994577 </i>
    <i name="pawaedc">  -6880.06675527 </i>
    <i name="eentropy">     -0.11839604 </i>
    <i name="bandstr">    488.54077665 </i>
    <i name="atom">   4687.48422623 </i>
    <i name="e_fr_energy">   -176.71200186 </i>
    <i name="e_wo_entrp">   -176.59360582 </i>
    <i name="e_0_energy">   -176.65280384 </i>
   </energy>
  </scstep>
  <structure>
   <crystal>
    <varray name="basis" >
     <v>       6.34454463      -0.05829721       0.03101040 </v>
     <v>      -1.76421162       9.56998697      -0.03888229 </v>
     <v>       0.02094047      -0.01428941       4.25166101 </v>
    </varray>
    <i name="volume">    257.70280448 </i>
    <varray name="rec_basis" >
     <v>       0.15788647       0.02910335      -0.00067982 </v>
     <v>       0.00096009       0.10467175       0.00034706 </v>
     <v>      -0.00114280       0.00074497       0.23521033 </v>
    </varray>
   </crystal>
   <varray name="positions" >
    <v>       0.74622427       0.26350363       0.41647449 </v>
    <v>       0.95296069       0.06523397       0.41061709 </v>
    <v>       0.35577300       0.17065308       0.41628547 </v>
    <v>       0.04722317       0.21255096       0.91939224 </v>
    <v>       0.65598358       0.12004000       0.91925802 </v>
    <v>       0.56684242       0.62289958       0.97564275 </v>
    <v>       0.96617448       0.72278965       0.97506224 </v>
    <v>       0.26202097       0.67469584       0.47455127 </v>
    <v>       0.49082787       0.97055638       0.45748333 </v>
    <v>       0.67327924       0.77599251       0.47551818 </v>
    <v>       0.16724844       0.52682796       0.97610800 </v>
    <v>       0.38485200       0.32800029       0.96847148 </v>
    <v>       0.38094265       0.82128466       0.97453113 </v>
    <v>       0.47918820       0.47481950       0.47262671 </v>
    <v>       0.77789964       0.42377470       0.96691788 </v>
    <v>       0.07315542       0.86973950       0.47287802 </v>
    <v>       0.08548764       0.37735726       0.46610985 </v>
    <v>       0.25344020       0.02460433       0.92664440 </v>
    <v>       0.77757719       0.91943296       0.97170811 </v>
    <v>       0.86839391       0.57538325       0.47410934 </v>
   </varray>
  </structure>
  <varray name="forces" >
   <v>      -1.35215987       0.17480062       0.53862395 </v>
   <v>      -1.42106803      -0.02277385       0.23602929 </v>
   <v>      -0.80665620       0.16074629       0.58522139 </v>
   <v>      -0.95208384       0.33847990       0.23549359 </v>
   <v>      -1.12372979      -0.24169749       0.28429708 </v>
   <v>      -0.19021016      -0.00019392       0.05302893 </v>
   <v>       0.05861130      -0.03537804       0.07413818 </v>
   <v>      -0.11248447       0.20834387       0.10180183 </v>
   <v>       1.31817631      -0.01218803      -0.55204256 </v>
   <v>       0.08802261      -0.00900778      -0.00786269 </v>
   <v>       0.14437300      -0.05920286       0.03146227 </v>
   <v>       1.45523720      -0.03799275      -0.61585090 </v>
   <v>       0.28581710       0.31050941      -0.14980276 </v>
   <v>       0.34201846       0.08190588      -0.00200668 </v>
   <v>       0.43457578      -0.15670213      -0.46135069 </v>
   <v>       1.08677931       0.09249515      -0.09749997 </v>
   <v>       0.94088674      -0.21829809      -0.32240025 </v>
   <v>      -1.34102419      -0.16483463       0.44969501 </v>
   <v>       1.02510740      -0.36405747      -0.40149143 </v>
   <v>       0.11981134      -0.04495410       0.02051642 </v>
  </varray>
  <varray name="stress" >
   <v>     -17.73915738     -14.63872492       1.78351730 </v>
   <v>     -14.63872499     -14.45374004      -0.71149934 </v>
   <v>       1.78351705      -0.71149907     -35.57018389 </v>
  </varray>
  <energy>
   <i name="e_fr_energy">   -176.71200186 </i>
   <i name="e_wo_entrp">   -176.65280384 </i>
   <i name="e_0_energy">     -0.11839604 </i>
  </energy>
  <time name="totalsc">   41.51   41.58</time>
 </calculation>
 <calculation>
  <scstep>
   <time name="dav">    1.39    1.40</time>
   <time name="total">    1.50    1.50</time>
   <energy>
    <i name="alphaZ">    557.67296946 </i>
    <i name="ewald">  -5319.82203646 </i>
    <i name="hartreedc">   -634.70899618 </i>
    <i name="XCdc">   -768.70918388 </i>
    <i name="pawpsdc">   7683.18414094 </i>
    <i name="pawaedc">  -6880.06465967 </i>
    <i name="eentropy">     -0.12075784 </i>
    <i name="bandstr">    497.76957111 </i>
    <i name="atom">   4687.48422623 </i>
    <i name="e_fr_energy">   -177.31472629 </i>
    <i name="e_wo_entrp">   -177.19396845 </i>
    <i name="e_0_energy">   -177.25434737 </i>
   </energy>
  </scstep>
  <scstep>
   <time name="dav">    2.47    2.47</time>
   <time name="total">    2.57    2.57</time>
   <energy>
    <i name="e_fr_energy">   -182.99501536 </i>
    <i name="e_wo_entrp">   -182.86769611 </i>
    <i name="e_0_energy">   -182.93135573 </i>
   </energy>
  </scstep>
  <scstep>
   <time name="dav">    2.41    2.41</time>
   <time name="total">    2.51    2.51</time>
   <energy>
    <i name="e_fr_energy">   -177.43445852 </i>
    <i name="e_wo_entrp">   -177.31669489 </i>
    <i name="e_0_energy">   -177.37557671 </i>
   </energy>
  </scstep>
  <scstep>
   <time name="dav">    2.08    2.08</time>
   <time name="total">    2.18    2.18</time>
   <energy>
    <i name="e_fr_energy">   -177.35482154 </i>
    <i name="e_wo_entrp">   -177.23247764 </i>
    <i name="e_0_energy">   -177.29364959 </i>
   </energy>
  </scstep>
  <scstep>
   <time name="dav">    2.24    2.25</time>
   <time name="total">    2.35    2.35</time>
   <energy>
    <i name="e_fr_energy">   -177.38788195 </i>
    <i name="e_wo_entrp">   -177.26846672 </i>
    <i name="e_0_energy">   -177.32817434 </i>
   </energy>
  </scstep>
  <scstep>
   <time name="dav">    2.27    2.27</time>
   <time name="total">    2.37    2.37</time>
   <energy>
    <i name="e_fr_energy">   -177.32123677 </i>
    <i name="e_wo_entrp">   -177.19928349 </i>
    <i name="e_0_energy">   -177.26026013 </i>
   </energy>
  </scstep>
  <scstep>
   <time name="dav">    2.45    2.45</time>
   <time name="total">    2.55    2.55</time>
   <energy>
    <i name="e_fr_energy">   -177.35472553 </i>
    <i name="e_wo_entrp">   -177.23824817 </i>
    <i name="e_0_energy">   -177.29648685 </i>
   </energy>
  </scstep>
  <scstep>
   <time name="dav">    2.43    2.43</time>
   <time name="total">    2.53    2.54</time>
   <energy>
    <i name="e_fr_energy">   -177.29889803 </i>
    <i name="e_wo_entrp">   -177.17761147 </i>
    <i name="e_0_energy">   -177.23825475 </i>
   </energy>
  </scstep>
  <scstep>
   <time name="dav">    2.18    2.19</time>
   <time name="total">    2.29    2.29</time>
   <energy>
    <i name="e_fr_energy">   -177.29041879 </i>
    <i name="e_wo_entrp">   -177.17005928 </i>
    <i name="e_0_energy">   -177.23023904 </i>
   </energy>
  </scstep>
  <scstep>
   <time name="dav">    2.34    2.35</time>
   <time name="total">    2.45    2.45</time>
   <energy>
    <i name="e_fr_energy">   -177.29063113 </i>
    <i name="e_wo_entrp">   -177.16991011 </i>
    <i name="e_0_energy">   -177.23027062 </i>
   </energy>
  </scstep>
  <scstep>
   <time name="dav">    2.23    2.24</time>
   <time name="total">    2.34    2.34</time>
   <energy>
    <i name="e_fr_energy">   -177.28905495 </i>
    <i name="e_wo_entrp">   -177.16861915 </i>
    <i name="e_0_energy">   -177.22883705 </i>
   </energy>
  </scstep>
  <scstep>
   <time name="dav">    2.43    2.43</time>
   <time name="total">    2.53    2.54</time>
   <energy>
    <i name="e_fr_energy">   -177.28944421 </i>
    <i name="e_wo_entrp">   -177.16879138 </i>
    <i name="e_0_energy">   -177.22911780 </i>
   </energy>
  </scstep>
  <scstep>
   <time name="dav">    2.35    2.36</time>
   <time name="total">    2.45    2.46</time>
   <energy>
    <i name="e_fr_energy">   -177.28894212 </i>
    <i name="e_wo_entrp">   -177.16838054 </i>
    <i name="e_0_energy">   -177.22866133 </i>
   </energy>
  </scstep>
  <scstep>
   <time name="dav">    2.41    2.41</time>
   <time name="total">    2.51    2.51</time>
   <energy>
    <i name="e_fr_energy">   -177.28894958 </i>
    <i name="e_wo_entrp">   -177.16839827 </i>
    <i name="e_0_energy">   -177.22867393 </i>
   </energy>
  </scstep>
  <scstep>
   <time name="dav">    2.17    2.18</time>
   <time name="total">    2.28    2.28</time>
   <energy>
    <i name="e_fr_energy">   -177.28892570 </i>
    <i name="e_wo_entrp">   -177.16833918 </i>
    <i name="e_0_energy">   -177.22863244 </i>
   </energy>
  </scstep>
  <scstep>
   <time name="dav">    1.46    1.46</time>
   <time name="total">    1.51    1.51</time>
   <energy>
    <i name="alphaZ">    557.67296946 </i>
    <i name="ewald">  -5319.82203646 </i>
    <i name="hartreedc">   -629.28310063 </i>
    <i name="XCdc">   -768.82875912 </i>
    <i name="pawpsdc">   7689.26170644 </i>
    <i name="pawaedc">  -6886.29686424 </i>
    <i name="eentropy">     -0.12056164 </i>
    <i name="bandstr">    492.64349492 </i>
    <i name="atom">   4687.48422623 </i>
    <i name="e_fr_energy">   -177.28892505 </i>
    <i name="e_wo_entrp">   -177.16836341 </i>
    <i name="e_0_energy">   -177.22864423 </i>
   </energy>
  </scstep>
  <structure>
   <crystal>
    <varray name="basis" >
     <v>       6.32618751      -0.10089375       0.05366905 </v>
     <v>      -1.82280230       9.63056170      -0.06729276 </v>
     <v>       0.03619373      -0.02442350       4.22571389 </v>
    </varray>
    <i name="volume">    256.64689830 </i>
    <varray name="rec_basis" >
     <v>       0.15856165       0.03000311      -0.00118469 </v>
     <v>       0.00165612       0.10415367       0.00058780 </v>
     <v>      -0.00198745       0.00127755       0.23667081 </v>
    </varray>
   </crystal>
   <varray name="positions" >
    <v>       0.73070431       0.25940824       0.42047838 </v>
    <v>       0.94126595       0.06627475       0.40973501 </v>
    <v>       0.35271812       0.17549232       0.41999648 </v>
    <v>       0.03142824       0.20994783       0.92545026 </v>
    <v>       0.65336875       0.12202308       0.92511655 </v>
    <v>       0.56497452       0.62222153       0.97666455 </v>
    <v>       0.96767203       0.72182383       0.97576618 </v>
    <v>       0.26142130       0.67606958       0.47491028 </v>
    <v>       0.50693269       0.96734046       0.44471415 </v>
    <v>       0.67303541       0.77652656       0.47642827 </v>
    <v>       0.16531925       0.52882196       0.97764113 </v>
    <v>       0.40218797       0.33152853       0.96389949 </v>
    <v>       0.38328751       0.81895201       0.97467257 </v>
    <v>       0.48133076       0.47465068       0.47132880 </v>
    <v>       0.78004541       0.42369737       0.96116558 </v>
    <v>       0.07706311       0.86629099       0.47178356 </v>
    <v>       0.10027262       0.38082851       0.45993678 </v>
    <v>       0.24323478       0.02516455       0.93709150 </v>
    <v>       0.78177044       0.91669133       0.96961827 </v>
    <v>       0.86746184       0.57638588       0.47399220 </v>
   </varray>
  </structure>
  <varray name="forces" >
   <v>      -0.34543295       1.05822627       0.54916008 </v>
   <v>      -0.75894149      -0.35797289       0.60906604 </v>
   <v>      -0.89501059      -0.49572272       0.52035195 </v>
   <v>       0.26836224       0.87822925      -0.03128659 </v>
   <v>      -1.54166002      -0.72825984       0.00079901 </v>
   <v>      -0.08690859       0.09191319       0.02566065 </v>
   <v>      -0.16301701       0.14453802       0.05282281 </v>
   <v>      -0.10037673       0.02261118       0.17871002 </v>
   <v>       0.00326215       0.41219065       0.25357901 </v>
   <v>       0.34535209      -0.25299730      -0.07123396 </v>
   <v>       0.56892956      -0.33378084      -0.14413718 </v>
   <v>       0.38675789      -0.59364978      -0.55059011 </v>
   <v>       0.10816631       0.77655665      -0.30687063 </v>
   <v>       0.46333484       0.16326664      -0.03989828 </v>
   <v>       0.50682673      -0.18717657      -0.27849501 </v>
   <v>       1.02431856       0.79362553      -0.14144845 </v>
   <v>      -0.27330974      -0.86762662      -0.07486793 </v>
   <v>      -0.90545364      -0.31914775       0.01520996 </v>
   <v>       1.12952859      -0.11387886      -0.60970314 </v>
   <v>       0.26527179      -0.09094420       0.04317176 </v>
  </varray>
  <varray name="stress" >
   <v>     -12.12969032      -8.98980266      -7.99392179 </v>
   <v>      -8.98980270     -23.69585708       3.73227590 </v>
   <v>      -7.99392186       3.73227591     -27.22948186 </v>
  </varray>
  <energy>
   <i name="e_fr_energy">   -177.28892505 </i>
   <i name="e_wo_entrp">   -177.22864423 </i>
   <i name="e_0_energy">     -0.12056164 </i>
  </energy>
  <time name="totalsc">   39.60   39.65</time>
 </calculation>
 <calculation>
  <scstep>
   <time name="dav">    1.36    1.36</time>
   <time name="total">    1.46    1.46</time>
   <energy>
    <i name="alphaZ">    574.34767511 </i>
    <i name="ewald">  -5372.84469418 </i>
    <i name="hartreedc">   -637.76742772 </i>
    <i name="XCdc">   -767.03685298 </i>
    <i name="pawpsdc">   7689.20116614 </i>
    <i name="pawaedc">  -6886.23709870 </i>
    <i name="eentropy">     -0.10908864 </i>
    <i name="bandstr">    534.48094175 </i>
    <i name="atom">   4687.48422623 </i>
    <i name="e_fr_energy">   -178.48115299 </i>
    <i name="e_wo_entrp">   -178.37206435 </i>
    <i name="e_0_energy">   -178.42660867 </i>
   </energy>
  </scstep>
  <scstep>
   <time name="dav">    2.25    2.25</time>
   <time name="total">    2.35    2.35</time>
   <energy>
    <i name="e_fr_energy">   -196.03492374 </i>
    <i name="e_wo_entrp">   -195.91257972 </i>
    <i name="e_0_energy">   -195.97375173 </i>
   </energy>
  </scstep>
  <scstep>
   <time name="dav">    2.29    2.29</time>
   <time name="total">    2.39    2.39</time>
   <energy>
    <i name="e_fr_energy">   -178.13702060 </i>
    <i name="e_wo_entrp">   -178.03184135 </i>
    <i name="e_0_energy">   -178.08443097 </i>
   </energy>
  </scstep>
  <scstep>
   <time name="dav">    2.27    2.28</time>
   <time name="total">    2.37    2.38</time>
   <energy>
    <i name="e_fr_energy">   -178.29256448 </i>
    <i name="e_wo_entrp">   -178.18130566 </i>
    <i name="e_0_energy">   -178.23693507 </i>
   </energy>
  </scstep>
  <scstep>
   <time name="dav">    2.20    2.20</time>
   <time name="total">    2.30    2.30</time>
   <energy>
    <i name="e_fr_energy">   -178.13372871 </i>
    <i name="e_wo_entrp">   -178.02562297 </i>
    <i name="e_0_energy">   -178.07967584 </i>
   </energy>
  </scstep>
  <scstep>
   <time name="dav">    2.34    2.35</time>
   <time name="total">    2.44    2.45</time>
   <energy>
    <i name="e_fr_energy">   -178.16062221 </i>
    <i name="e_wo_entrp">   -178.05771740 </i>
    <i name="e_0_energy">   -178.10916981 </i>
   </energy>
  </scstep>
  <scstep>
   <time name="dav">    2.30    2.30</time>
   <time name="total">    2.40    2.40</time>
   <energy>
    <i name="e_fr_energy">   -178.06013557 </i>
    <i name="e_wo_entrp">   -177.95486070 </i>
    <i name="e_0_energy">   -178.00749813 </i>
   </energy>
  </scstep>
  <scstep>
   <time name="dav">    2.45    2.45</time>
   <time name="total">    2.55    2.55</time>
   <energy>
    <i name="e_fr_energy">   -178.04479346 </i>
    <i name="e_wo_entrp">   -177.93854798 </i>
    <i name="e_0_energy">   -177.99167072 </i>
   </energy>
  </scstep>
  <scstep>
   <time name="dav">    2.37    2.38</time>
   <time name="total">    2.48    2.48</time>
   <energy>
    <i name="e_fr_energy">   -178.04035690 </i>
    <i name="e_wo_entrp">   -177.93531385 </i>
    <i name="e_0_energy">   -177.98783538 </i>
   </energy>
  </scstep>
  <scstep>
   <time name="dav">    2.34    2.34</time>
   <time name="total">    2.44    2.44</time>
   <energy>
    <i name="e_fr_energy">   -178.03318410 </i>
    <i name="e_wo_entrp">   -177.92754199 </i>
    <i name="e_0_energy">   -177.98036305 </i>
   </energy>
  </scstep>
  <scstep>
   <time name="dav">    2.46    2.47</time>
   <time name="total">    2.57    2.57</time>
   <energy>
    <i name="e_fr_energy">   -178.03171807 </i>
    <i name="e_wo_entrp">   -177.92627940 </i>
    <i name="e_0_energy">   -177.97899873 </i>
   </energy>
  </scstep>
  <scstep>
   <time name="dav">    2.37    2.37</time>
   <time name="total">    2.47    2.47</time>
   <energy>
    <i name="e_fr_energy">   -178.02955396 </i>
    <i name="e_wo_entrp">   -177.92401583 </i>
    <i name="e_0_energy">   -177.97678489 </i>
   </energy>
  </scstep>
  <scstep>
   <time name="dav">    2.08    2.09</time>
   <time name="total">    2.18    2.19</time>
   <energy>
    <i name="e_fr_energy">   -178.02951719 </i>
    <i name="e_wo_entrp">   -177.92400679 </i>
    <i name="e_0_energy">   -177.97676199 </i>
   </energy>
  </scstep>
  <scstep>
   <time name="dav">    2.17    2.17</time>
   <time name="total">    2.27    2.27</time>
   <energy>
    <i name="e_fr_energy">   -178.02944515 </i>
    <i name="e_wo_entrp">   -177.92395017 </i>
    <i name="e_0_energy">   -177.97669766 </i>
   </energy>
  </scstep>
  <scstep>
   <time name="dav">    2.20    2.21</time>
   <time name="total">    2.31    2.31</time>
   <energy>
    <i name="e_fr_energy">   -178.02935099 </i>
    <i name="e_wo_entrp">   -177.92387782 </i>
    <i name="e_0_energy">   -177.97661441 </i>
   </energy>
  </scstep>
  <scstep>
   <time name="dav">    2.40    2.40</time>
   <time name="total">    2.50    2.50</time>
   <energy>
    <i name="e_fr_energy">   -178.02916120 </i>
    <i name="e_wo_entrp">   -177.92368488 </i>
    <i name="e_0_energy">   -177.97642304 </i>
   </energy>
  </scstep>
  <scstep>
   <time name="dav">    1.78    1.78</time>
   <time name="total">    1.88    1.88</time>
   <energy>
    <i name="e_fr_energy">   -178.02914691 </i>
    <i name="e_wo_entrp">   -177.92365169 </i>
    <i name="e_0_energy">   -177.97639930 </i>
   </energy>
  </scstep>
  <scstep>
   <time name="dav">    1.12    1.12</time>
   <time name="total">    1.23    1.23</time>
   <energy>
    <i name="e_fr_energy">   -178.02913251 </i>
    <i name="e_wo_entrp">   -177.92365101 </i>
    <i name="e_0_energy">   -177.97639176 </i>
   </energy>
  </scstep>
  <scstep>
   <time name="dav">    1.04    1.04</time>
   <time name="total">    1.09    1.09</time>
   <energy>
    <i name="alphaZ">    574.34767511 </i>
    <i name="ewald">  -5372.84469418 </i>
    <i name="hartreedc">   -618.69387811 </i>
    <i name="XCdc">   -767.52987565 </i>
    <i name="pawpsdc">   7928.11488616 </i>
    <i name="pawaedc">  -7126.79867001 </i>
    <i name="eentropy">     -0.10548246 </i>
    <i name="bandstr">    517.99668295 </i>
    <i name="atom">   4687.48422623 </i>
    <i name="e_fr_energy">   -178.02912997 </i>
    <i name="e_wo_entrp">   -177.92364750 </i>
    <i name="e_0_energy">   -177.97638873 </i>
   </energy>
  </scstep>
  <structure>
   <crystal>
    <varray name="basis" >
     <v>       6.28623196      -0.14023075       0.03844320 </v>
     <v>      -1.87226461       9.55887150      -0.05437992 </v>
     <v>       0.02651137      -0.02101469       4.16554622 </v>
    </varray>
    <i name="volume">    249.19581654 </i>
    <varray name="rec_basis" >
     <v>       0.15978109       0.03129091      -0.00085906 </v>
     <v>       0.00234085       0.10507628       0.00051520 </v>
     <v>      -0.00144404       0.00108296       0.24007921 </v>
    </varray>
   </crystal>
   <varray name="positions" >
    <v>       0.72383088       0.26401609       0.42923226 </v>
    <v>       0.92979924       0.06451300       0.41747204 </v>
    <v>       0.34293227       0.17428175       0.42821610 </v>
    <v>       0.02957959       0.21408492       0.92726825 </v>
    <v>       0.63770997       0.11838784       0.92735392 </v>
    <v>       0.56369275       0.62250116       0.97738452 </v>
    <v>       0.96701162       0.72230381       0.97673271 </v>
    <v>       0.26035597       0.67668181       0.47739452 </v>
    <v>       0.51338947       0.96860534       0.44344741 </v>
    <v>       0.67556168       0.77528785       0.47576810 </v>
    <v>       0.16907708       0.52765040       0.97622653 </v>
    <v>       0.41084292       0.32940183       0.95494682 </v>
    <v>       0.38637654       0.82260225       0.97074058 </v>
    <v>       0.48643323       0.47557521       0.47029774 </v>
    <v>       0.78496823       0.42263068       0.95538668 </v>
    <v>       0.08875871       0.86973587       0.46946839 </v>
    <v>       0.10174362       0.37705420       0.45669366 </v>
    <v>       0.23110958       0.02343016       0.94113187 </v>
    <v>       0.79301838       0.91515464       0.96074420 </v>
    <v>       0.86930326       0.57624117       0.47448371 </v>
   </varray>
  </structure>
  <varray name="forces" >
   <v>      -0.13631976       0.59190552       0.27770367 </v>
   <v>      -0.29092072      -0.17584127       0.52817430 </v>
   <v>      -0.75047149      -0.42053130       0.25460660 </v>
   <v>      -0.03521080       0.43925729       0.09535886 </v>
   <v>      -0.82335023      -0.29706189       0.10697180 </v>
   <v>       0.15377298       0.12668966       0.01457829 </v>
   <v>       0.01661883       0.11998596      -0.02919817 </v>
   <v>       0.09158171      -0.09050095       0.09251541 </v>
   <v>      -0.29346406       0.23993115       0.23132888 </v>
   <v>       0.42045416      -0.24850424      -0.12205586 </v>
   <v>       0.44687422      -0.31514859      -0.13099076 </v>
   <v>       0.01600739      -0.51822760      -0.23803087 </v>
   <v>       0.04076363       0.46052731      -0.13604786 </v>
   <v>       0.31587077       0.02668052      -0.14834660 </v>
   <v>       0.35543863      -0.01852174      -0.02996734 </v>
   <v>       0.52773762       0.71494055      -0.22017514 </v>
   <v>      -0.30468371      -0.55025480      -0.07178970 </v>
   <v>      -0.64930977      -0.23941526      -0.03633966 </v>
   <v>       0.63158107       0.19245974      -0.38912911 </v>
   <v>       0.26702954      -0.03837005      -0.04916675 </v>
  </varray>
  <varray name="stress" >
   <v>      38.74388210      -4.80359850      -5.68028928 </v>
   <v>      -4.80359859      26.74741983       6.04559962 </v>
   <v>      -5.68028925       6.04559964      27.72611847 </v>
  </varray>
  <energy>
   <i name="e_fr_energy">   -178.02912997 </i>
   <i name="e_wo_entrp">   -177.97638873 </i>
   <i name="e_0_energy">     -0.10548246 </i>
  </energy>
  <time name="totalsc">   44.37   44.43</time>
 </calculation>
 <calculation>
  <scstep>
   <time name="dav">    1.38    1.38</time>
   <time name="total">    1.48    1.49</time>
   <energy>
    <i name="alphaZ">    582.44597464 </i>
    <i name="ewald">  -5396.26038419 </i>
    <i name="hartreedc">   -623.93615741 </i>
    <i name="XCdc">   -766.68486324 </i>
    <i name="pawpsdc">   7928.10203680 </i>
    <i name="pawaedc">  -7126.78488376 </i>
    <i name="eentropy">     -0.10600292 </i>
    <i name="bandstr">    537.52745842 </i>
    <i name="atom">   4687.48422623 </i>
    <i name="e_fr_energy">   -178.21259543 </i>
    <i name="e_wo_entrp">   -178.10659251 </i>
    <i name="e_0_energy">   -178.15959397 </i>
   </energy>
  </scstep>
  <scstep>
   <time name="dav">    2.32    2.32</time>
   <time name="total">    2.42    2.42</time>
   <energy>
    <i name="e_fr_energy">   -182.53611541 </i>
    <i name="e_wo_entrp">   -182.42592357 </i>
    <i name="e_0_energy">   -182.48101949 </i>
   </energy>
  </scstep>
  <scstep>
   <time name="dav">    2.40    2.40</time>
   <time name="total">    2.50    2.50</time>
   <energy>
    <i name="e_fr_energy">   -178.07977047 </i>
    <i name="e_wo_entrp">   -177.97719521 </i>
    <i name="e_0_energy">   -178.02848284 </i>
   </energy>
  </scstep>
  <scstep>
   <time name="dav">    2.16    2.16</time>
   <time name="total">    2.26    2.26</time>
   <energy>
    <i name="e_fr_energy">   -178.18153340 </i>
    <i name="e_wo_entrp">   -178.07414045 </i>
    <i name="e_0_energy">   -178.12783692 </i>
   </energy>
  </scstep>
  <scstep>
   <time name="dav">    2.06    2.06</time>
   <time name="total">    2.16    2.16</time>
   <energy>
    <i name="e_fr_energy">   -178.16211299 </i>
    <i name="e_wo_entrp">   -178.05740155 </i>
    <i name="e_0_energy">   -178.10975727 </i>
   </energy>
  </scstep>
  <scstep>
   <time name="dav">    2.16    2.17</time>
   <time name="total">    2.26    2.27</time>
   <energy>
    <i name="e_fr_energy">   -178.14152974 </i>
    <i name="e_wo_entrp">   -178.03695409 </i>
    <i name="e_0_energy">   -178.08924191 </i>
   </energy>
  </scstep>
  <scstep>
   <time name="dav">    2.34    2.34</time>
   <time name="total">    2.44    2.44</time>
   <energy>
    <i name="e_fr_energy">   -178.13629783 </i>
    <i name="e_wo_entrp">   -178.03239361 </i>
    <i name="e_0_energy">   -178.08434572 </i>
   </energy>
  </scstep>
  <scstep>
   <time name="dav">    2.36    2.37</time>
   <time name="total">    2.46    2.47</time>
   <energy>
    <i name="e_fr_energy">   -178.12798154 </i>
    <i name="e_wo_entrp">   -178.02371718 </i>
    <i name="e_0_energy">   -178.07584936 </i>
   </energy>
  </scstep>
  <scstep>
   <time name="dav">    2.40    2.40</time>
   <time name="total">    2.50    2.50</time>
   <energy>
    <i name="e_fr_energy">   -178.12837393 </i>
    <i name="e_wo_entrp">   -178.02383911 </i>
    <i name="e_0_energy">   -178.07610652 </i>
   </energy>
  </scstep>
  <scstep>
   <time name="dav">    2.38    2.38</time>
   <time name="total">    2.48    2.49</time>
   <energy>
    <i name="e_fr_energy">   -178.12712494 </i>
    <i name="e_wo_entrp">   -178.02291884 </i>
    <i name="e_0_energy">   -178.07502189 </i>
   </energy>
  </scstep>
  <scstep>
   <time name="dav">    2.26    2.26</time>
   <time name="total">    2.36    2.36</time>
   <energy>
    <i name="e_fr_energy">   -178.12726462 </i>
    <i name="e_wo_entrp">   -178.02273603 </i>
    <i name="e_0_energy">   -178.07500033 </i>
   </energy>
  </scstep>
  <scstep>
   <time name="dav">    2.35    2.36</time>
   <time name="total">    2.46    2.46</time>
   <energy>
    <i name="e_fr_energy">   -178.12703042 </i>
    <i name="e_wo_entrp">   -178.02263822 </i>
    <i name="e_0_energy">   -178.07483432 </i>
   </energy>
  </scstep>
  <scstep>
   <time name="dav">    2.22    2.22</time>
   <time name="total">    2.32    2.32</time>
   <energy>
    <i name="e_fr_energy">   -178.12692039 </i>
    <i name="e_wo_entrp">   -178.02256120 </i>
    <i name="e_0_energy">   -178.07474080 </i>
   </energy>
  </scstep>
  <scstep>
   <time name="dav">    1.64    1.64</time>
   <time name="total">    1.69    1.69</time>
   <energy>
    <i name="alphaZ">    582.44597464 </i>
    <i name="ewald">  -5396.26038419 </i>
    <i name="hartreedc">   -615.49677769 </i>
    <i name="XCdc">   -766.89584604 </i>
    <i name="pawpsdc">   8057.32305422 </i>
    <i name="pawaedc">  -7256.91331400 </i>
    <i name="eentropy">     -0.10435157 </i>
    <i name="bandstr">    530.29048828 </i>
    <i name="atom">   4687.48422623 </i>
    <i name="e_fr_energy">   -178.12693012 </i>
    <i name="e_wo_entrp">   -178.02257856 </i>
    <i name="e_0_energy">   -178.07475434 </i>
   </energy>
  </scstep>
  <structure>
   <crystal>
    <varray name="basis" >
     <v>       6.26744067      -0.15873114       0.03128240 </v>
     <v>      -1.89552699       9.52515523      -0.04830695 </v>
     <v>       0.02195771      -0.01941150       4.13724906 </v>
    </varray>
    <i name="volume">    245.73101044 </i>
    <varray name="rec_basis" >
     <v>       0.16036642       0.03190972      -0.00070140 </v>
     <v>       0.00267000       0.10551894       0.00048091 </v>
     <v>      -0.00118138       0.00099078       0.24171742 </v>
    </varray>
   </crystal>
   <varray name="positions" >
    <v>       0.72060143       0.26618480       0.43339019 </v>
    <v>       0.92436203       0.06365416       0.42114624 </v>
    <v>       0.33829453       0.17368740       0.43212262 </v>
    <v>       0.02872450       0.21604154       0.92812641 </v>
    <v>       0.63027368       0.11663360       0.92839984 </v>
    <v>       0.56308715       0.62263102       0.97772541 </v>
    <v>       0.96670159       0.72252982       0.97719200 </v>
    <v>       0.25985568       0.67696947       0.47857701 </v>
    <v>       0.51645442       0.96921781       0.44285227 </v>
    <v>       0.67675248       0.77470595       0.47545926 </v>
    <v>       0.17085133       0.52710289       0.97555977 </v>
    <v>       0.41492833       0.32841250       0.95069350 </v>
    <v>       0.38785524       0.82433881       0.96886464 </v>
    <v>       0.48885494       0.47602366       0.46981322 </v>
    <v>       0.78729219       0.42213581       0.95263961 </v>
    <v>       0.09431597       0.87139203       0.46837885 </v>
    <v>       0.10242055       0.37526895       0.45515440 </v>
    <v>       0.22535804       0.02258351       0.94304126 </v>
    <v>       0.79833542       0.91445008       0.95653196 </v>
    <v>       0.87017550       0.57617619       0.47472156 </v>
   </varray>
  </structure>
  <varray name="forces" >
   <v>      -0.00530813       0.30439547       0.12297324 </v>
   <v>      -0.02228325      -0.04527947       0.47451015 </v>
   <v>      -0.65554261      -0.39382499       0.11032540 </v>
   <v>      -0.14287382       0.19736156       0.14945587 </v>
   <v>      -0.45370355      -0.03212758       0.15702231 </v>
   <v>       0.28669236       0.13981033      -0.00103395 </v>
   <v>       0.11960892       0.10203833      -0.06687654 </v>
   <v>       0.22289185      -0.14410995       0.03842020 </v>
   <v>      -0.49672844       0.15281281       0.21520477 </v>
   <v>       0.45476211      -0.25943364      -0.15223932 </v>
   <v>       0.38231368      -0.30812652      -0.12296395 </v>
   <v>      -0.26296706      -0.45541891      -0.05569605 </v>
   <v>       0.00549891       0.25431024      -0.04578716 </v>
   <v>       0.22529835      -0.02419301      -0.19154912 </v>
   <v>       0.29315301       0.08680244       0.10502266 </v>
   <v>       0.22237717       0.62287942      -0.24732882 </v>
   <v>      -0.33889191      -0.33958026      -0.07220183 </v>
   <v>      -0.43492009      -0.14920631      -0.07715883 </v>
   <v>       0.30611853       0.30528442      -0.23452371 </v>
   <v>       0.29450397      -0.01439440      -0.10557532 </v>
  </varray>
  <varray name="stress" >
   <v>      66.69658930      -1.17904128      -4.00899589 </v>
   <v>      -1.17904137      56.25729615       6.69888897 </v>
   <v>      -4.00899581       6.69888901      59.52748352 </v>
  </varray>
  <energy>
   <i name="e_fr_energy">   -178.12693012 </i>
   <i name="e_wo_entrp">   -178.07475434 </i>
   <i name="e_0_energy">     -0.10435157 </i>
  </energy>
  <time name="totalsc">   34.50   34.54</time>
 </calculation>
 <calculation>
  <scstep>
   <time name="dav">    1.55    1.55</time>
   <time name="total">    1.65    1.65</time>
   <energy>
    <i name="alphaZ">    561.63480343 </i>
    <i name="ewald">  -5325.13232784 </i>
    <i name="hartreedc">   -615.26678516 </i>
    <i name="XCdc">   -768.95241989 </i>
    <i name="pawpsdc">   8057.51265963 </i>
    <i name="pawaedc">  -7257.09999725 </i>
    <i name="eentropy">     -0.11342584 </i>
    <i name="bandstr">    480.78641797 </i>
    <i name="atom">   4687.48422623 </i>
    <i name="e_fr_energy">   -179.14684872 </i>
    <i name="e_wo_entrp">   -179.03342288 </i>
    <i name="e_0_energy">   -179.09013580 </i>
   </energy>
  </scstep>
  <scstep>
   <time name="dav">    2.12    2.13</time>
   <time name="total">    2.23    2.23</time>
   <energy>
    <i name="e_fr_energy">   -208.01704564 </i>
    <i name="e_wo_entrp">   -207.91744976 </i>
    <i name="e_0_energy">   -207.96724770 </i>
   </energy>
  </scstep>
  <scstep>
   <time name="dav">    2.27    2.28</time>
   <time name="total">    2.38    2.38</time>
   <energy>
    <i name="e_fr_energy">   -177.73232618 </i>
    <i name="e_wo_entrp">   -177.61694491 </i>
    <i name="e_0_energy">   -177.67463554 </i>
   </energy>
  </scstep>
  <scstep>
   <time name="dav">    2.14    2.14</time>
   <time name="total">    2.24    2.25</time>
   <energy>
    <i name="e_fr_energy">   -178.71677990 </i>
    <i name="e_wo_entrp">   -178.60405160 </i>
    <i name="e_0_energy">   -178.66041575 </i>
   </energy>
  </scstep>
  <scstep>
   <time name="dav">    2.30    2.30</time>
   <time name="total">    2.40    2.41</time>
   <energy>
    <i name="e_fr_energy">   -178.46711203 </i>
    <i name="e_wo_entrp">   -178.34934895 </i>
    <i name="e_0_energy">   -178.40823049 </i>
   </energy>
  </scstep>
  <scstep>
   <time name="dav">    2.34    2.34</time>
   <time name="total">    2.45    2.45</time>
   <energy>
    <i name="e_fr_energy">   -178.48917174 </i>
    <i name="e_wo_entrp">   -178.37499039 </i>
    <i name="e_0_energy">   -178.43208107 </i>
   </energy>
  </scstep>
  <scstep>
   <time name="dav">    2.31    2.32</time>
   <time name="total">    2.41    2.42</time>
   <energy>
    <i name="e_fr_energy">   -178.39039134 </i>
    <i name="e_wo_entrp">   -178.27454007 </i>
    <i name="e_0_energy">   -178.33246570 </i>
   </energy>
  </scstep>
  <scstep>
   <time name="dav">    2.09    2.09</time>
   <time name="total">    2.19    2.19</time>
   <energy>
    <i name="e_fr_energy">   -178.39163228 </i>
    <i name="e_wo_entrp">   -178.27585047 </i>
    <i name="e_0_energy">   -178.33374138 </i>
   </energy>
  </scstep>
  <scstep>
   <time name="dav">    2.31    2.31</time>
   <time name="total">    2.41    2.41</time>
   <energy>
    <i name="e_fr_energy">   -178.37747364 </i>
    <i name="e_wo_entrp">   -178.26138660 </i>
    <i name="e_0_energy">   -178.31943012 </i>
   </energy>
  </scstep>
  <scstep>
   <time name="dav">    2.28    2.28</time>
   <time name="total">    2.38    2.39</time>
   <energy>
    <i name="e_fr_energy">   -178.37550504 </i>
    <i name="e_wo_entrp">   -178.25940226 </i>
    <i name="e_0_energy">   -178.31745365 </i>
   </energy>
  </scstep>
  <scstep>
   <time name="dav">    2.13    2.13</time>
   <time name="total">    2.23    2.23</time>
   <energy>
    <i name="e_fr_energy">   -178.37509797 </i>
    <i name="e_wo_entrp">   -178.25929544 </i>
    <i name="e_0_energy">   -178.31719670 </i>
   </energy>
  </scstep>
  <scstep>
   <time name="dav">    2.14    2.15</time>
   <time name="total">    2.25    2.25</time>
   <energy>
    <i name="e_fr_energy">   -178.37384310 </i>
    <i name="e_wo_entrp">   -178.25784077 </i>
    <i name="e_0_energy">   -178.31584194 </i>
   </energy>
  </scstep>
  <scstep>
   <time name="dav">    2.12    2.12</time>
   <time name="total">    2.22    2.22</time>
   <energy>
    <i name="e_fr_energy">   -178.37382500 </i>
    <i name="e_wo_entrp">   -178.25803494 </i>
    <i name="e_0_energy">   -178.31592997 </i>
   </energy>
  </scstep>
  <scstep>
   <time name="dav">    2.16    2.16</time>
   <time name="total">    2.26    2.26</time>
   <energy>
    <i name="e_fr_energy">   -178.37364625 </i>
    <i name="e_wo_entrp">   -178.25774773 </i>
    <i name="e_0_energy">   -178.31569699 </i>
   </energy>
  </scstep>
  <scstep>
   <time name="dav">    1.89    1.90</time>
   <time name="total">    1.99    2.00</time>
   <energy>
    <i name="e_fr_energy">   -178.37365692 </i>
    <i name="e_wo_entrp">   -178.25774770 </i>
    <i name="e_0_energy">   -178.31570231 </i>
   </energy>
  </scstep>
  <scstep>
   <time name="dav">    1.77    1.78</time>
   <time name="total">    1.87    1.88</time>
   <energy>
    <i name="e_fr_energy">   -178.37364724 </i>
    <i name="e_wo_entrp">   -178.25773432 </i>
    <i name="e_0_energy">   -178.31569078 </i>
   </energy>
  </scstep>
  <scstep>
   <time name="dav">    1.12    1.12</time>
   <time name="total">    1.17    1.17</time>
   <energy>
    <i name="alphaZ">    561.63480343 </i>
    <i name="ewald">  -5325.13232784 </i>
    <i name="hartreedc">   -634.87395301 </i>
    <i name="XCdc">   -768.50063533 </i>
    <i name="pawpsdc">   7701.55484806 </i>
    <i name="pawaedc">  -6898.76587279 </i>
    <i name="eentropy">     -0.11593157 </i>
    <i name="bandstr">    498.34119332 </i>
    <i name="atom">   4687.48422623 </i>
    <i name="e_fr_energy">   -178.37364951 </i>
    <i name="e_wo_entrp">   -178.25771794 </i>
    <i name="e_0_energy">   -178.31568372 </i>
   </energy>
  </scstep>
  <structure>
   <crystal>
    <varray name="basis" >
     <v>       6.36882784      -0.18763631       0.01469366 </v>
     <v>      -1.96714760       9.64311088      -0.01972169 </v>
     <v>       0.01152223      -0.00928862       4.17452604 </v>
    </varray>
    <i name="volume">    254.83648272 </i>
    <varray name="rec_basis" >
     <v>       0.15796496       0.03222334      -0.00036430 </v>
     <v>       0.00307317       0.10432834       0.00022366 </v>
     <v>      -0.00054149       0.00037946       0.23955049 </v>
    </varray>
   </crystal>
   <varray name="positions" >
    <v>       0.71665556       0.27033112       0.44012189 </v>
    <v>       0.91689676       0.06231236       0.43055451 </v>
    <v>       0.32748416       0.17118338       0.43840299 </v>
    <v>       0.02694075       0.21945458       0.93070163 </v>
    <v>       0.61744283       0.11409580       0.93129571 </v>
    <v>       0.56426056       0.62341177       0.97816229 </v>
    <v>       0.96717257       0.72326436       0.97716929 </v>
    <v>       0.26041288       0.67677874       0.48050640 </v>
    <v>       0.51760451       0.97062813       0.44413284 </v>
    <v>       0.68087921       0.77290303       0.47357398 </v>
    <v>       0.17523832       0.52513872       0.97347605 </v>
    <v>       0.41814340       0.32518928       0.94447879 </v>
    <v>       0.39019166       0.82771282       0.96592935 </v>
    <v>       0.49348118       0.47654819       0.46734041 </v>
    <v>       0.79233812       0.42187468       0.94995604 </v>
    <v>       0.10392580       0.87621523       0.46459723 </v>
    <v>       0.10075378       0.37144598       0.45241688 </v>
    <v>       0.21475914       0.02077327       0.94486708 </v>
    <v>       0.80773598       0.91481750       0.94868072 </v>
    <v>       0.87317781       0.57606104       0.47402593 </v>
   </varray>
  </structure>
  <varray name="forces" >
   <v>      -0.03943985      -0.32147016      -0.04181014 </v>
   <v>       0.12560873       0.20285764       0.18624980 </v>
   <v>      -0.25043022      -0.19486633      -0.09392791 </v>
   <v>      -0.29901810      -0.23687247       0.18813699 </v>
   <v>       0.08847519       0.37660218       0.18130660 </v>
   <v>       0.39875817       0.03032645      -0.08654736 </v>
   <v>       0.29501183       0.08236746      -0.15436418 </v>
   <v>       0.37243080      -0.11908181      -0.08439721 </v>
   <v>      -0.50016643      -0.04913342       0.08447629 </v>
   <v>       0.29647408      -0.09807240      -0.10012166 </v>
   <v>       0.26651802      -0.17203109      -0.08931034 </v>
   <v>      -0.54351220      -0.13720027       0.18039403 </v>
   <v>      -0.00315839      -0.14388324       0.05860630 </v>
   <v>       0.09408457      -0.08984515      -0.13010686 </v>
   <v>       0.09171469       0.28267500       0.17505550 </v>
   <v>      -0.25971577       0.07992512      -0.15208810 </v>
   <v>      -0.11364253       0.11956098      -0.04222658 </v>
   <v>       0.07452484       0.11237661      -0.08016551 </v>
   <v>      -0.37032792       0.21517426       0.12218700 </v>
   <v>       0.27581049       0.06059063      -0.12134666 </v>
  </varray>
  <varray name="stress" >
   <v>     -18.35420519       9.87597522       0.30894221 </v>
   <v>       9.87597527     -18.14863071       3.23290759 </v>
   <v>       0.30894227       3.23290769     -21.03697807 </v>
  </varray>
  <energy>
   <i name="e_fr_energy">   -178.37364951 </i>
   <i name="e_wo_entrp">   -178.31568372 </i>
   <i name="e_0_energy">     -0.11593157 </i>
  </energy>
  <time name="totalsc">   39.34   39.39</time>
 </calculation>
 <calculation>
  <scstep>
   <time name="dav">    1.33    1.33</time>
   <time name="total">    1.43    1.43</time>
   <energy>
    <i name="alphaZ">    565.88550939 </i>
    <i name="ewald">  -5340.21305408 </i>
    <i name="hartreedc">   -634.87558569 </i>
    <i name="XCdc">   -768.05848045 </i>
    <i name="pawpsdc">   7701.45171431 </i>
    <i name="pawaedc">  -6898.67074223 </i>
    <i name="eentropy">     -0.11412592 </i>
    <i name="bandstr">    508.68763360 </i>
    <i name="atom">   4687.48422623 </i>
    <i name="e_fr_energy">   -178.42290483 </i>
    <i name="e_wo_entrp">   -178.30877891 </i>
    <i name="e_0_energy">   -178.36584187 </i>
   </energy>
  </scstep>
  <scstep>
   <time name="dav">    2.18    2.18</time>
   <time name="total">    2.28    2.29</time>
   <energy>
    <i name="e_fr_energy">   -180.11021962 </i>
    <i name="e_wo_entrp">   -179.99539047 </i>
    <i name="e_0_energy">   -180.05280505 </i>
   </energy>
  </scstep>
  <scstep>
   <time name="dav">    2.29    2.29</time>
   <time name="total">    2.39    2.39</time>
[...]
       <r>    7.3345    0.0000 </r>
       <r>    7.4244    0.0000 </r>
       <r>    7.4508    0.0000 </r>
       <r>    7.5202    0.0000 </r>
       <r>    7.6065    0.0000 </r>
       <r>    7.6235    0.0000 </r>
       <r>    7.7162    0.0000 </r>
       <r>    7.7900    0.0000 </r>
      </set>
      <set comment="kpoint 8">
       <r>    1.6130    1.0000 </r>
       <r>    1.8868    1.0000 </r>
       <r>    2.0102    1.0000 </r>
       <r>    2.2675    1.0000 </r>
       <r>    2.9209    1.0000 </r>
       <r>    3.0466    1.0000 </r>
       <r>    3.3608    1.0000 </r>
       <r>    3.4397    1.0000 </r>
       <r>    3.4817    1.0000 </r>
       <r>    3.5897    1.0000 </r>
       <r>    3.6469    1.0000 </r>
       <r>    3.6747    1.0000 </r>
       <r>    3.7652    1.0000 </r>
       <r>    3.7993    1.0000 </r>
       <r>    3.8416    1.0000 </r>
       <r>    3.8480    1.0000 </r>
       <r>    3.8815    1.0000 </r>
       <r>    3.9946    1.0000 </r>
       <r>    4.0138    1.0000 </r>
       <r>    4.0526    1.0000 </r>
       <r>    4.1024    1.0000 </r>
       <r>    4.1235    1.0000 </r>
       <r>    4.7128    1.0000 </r>
       <r>    4.7534    1.0000 </r>
       <r>    4.8243    1.0000 </r>
       <r>    4.8866    1.0000 </r>
       <r>    4.9503    1.0000 </r>
       <r>    5.0579    1.0000 </r>
       <r>    5.1531    1.0000 </r>
       <r>    5.2158    1.0000 </r>
       <r>    5.2365    1.0000 </r>
       <r>    5.2847    1.0000 </r>
       <r>    5.3576    1.0000 </r>
       <r>    5.3658    1.0000 </r>
       <r>    5.4113    1.0000 </r>
       <r>    5.4461    1.0000 </r>
       <r>    5.5169    1.0000 </r>
       <r>    5.5561    1.0000 </r>
       <r>    5.5849    1.0000 </r>
       <r>    5.6115    1.0000 </r>
       <r>    5.7559    1.0000 </r>
       <r>    5.7740    1.0000 </r>
       <r>    5.8059    1.0000 </r>
       <r>    5.9421    1.0000 </r>
       <r>    5.9618    1.0000 </r>
       <r>    6.0250    1.0000 </r>
       <r>    6.0379    1.0000 </r>
       <r>    6.1247    1.0000 </r>
       <r>    6.1650    1.0000 </r>
       <r>    6.2657    1.0000 </r>
       <r>    6.3721    0.9930 </r>
       <r>    6.3950    0.9836 </r>
       <r>    6.5400    0.5334 </r>
       <r>    6.5745    0.3429 </r>
       <r>    6.5873    0.2793 </r>
       <r>    6.6896    0.0211 </r>
       <r>    6.7825    0.0004 </r>
       <r>    6.8311    0.0000 </r>
       <r>    6.9163    0.0000 </r>
       <r>    6.9779    0.0000 </r>
       <r>    7.0861    0.0000 </r>
       <r>    7.1547    0.0000 </r>
       <r>    7.2915    0.0000 </r>
       <r>    7.3668    0.0000 </r>
       <r>    7.4443    0.0000 </r>
       <r>    7.4672    0.0000 </r>
       <r>    7.5782    0.0000 </r>
       <r>    7.7000    0.0000 </r>
      </set>
     </set>
    </set>
   </array>
  </eigenvalues>
  <separator name="orbital magnetization" >
   <v name="MAGDIPOLOUT">      0.00000000      0.00000000      0.00000000</v>
  </separator>
  <dos>
   <i name="efermi">      6.54594057 </i>
   <total>
    <array>
     <dimension dim="1">gridpoints</dimension>
     <dimension dim="2">spin</dimension>
     <field>energy</field>
     <field>total</field>
     <field>integrated</field>
     <set>
      <set comment="spin 1">
       <r>    -1.4121     0.0000     0.0000 </r>
       <r>    -1.3773     0.0000     0.0000 </r>
       <r>    -1.3425     0.0000     0.0000 </r>
       <r>    -1.3077     0.0000     0.0000 </r>
       <r>    -1.2729     0.0000     0.0000 </r>
       <r>    -1.2380     0.0000     0.0000 </r>
       <r>    -1.2032     0.0000     0.0000 </r>
       <r>    -1.1684     0.0000     0.0000 </r>
       <r>    -1.1336     0.0000     0.0000 </r>
       <r>    -1.0988     0.0000     0.0000 </r>
       <r>    -1.0640     0.0000     0.0000 </r>
       <r>    -1.0292     0.0000     0.0000 </r>
       <r>    -0.9944     0.0000     0.0000 </r>
       <r>    -0.9596     0.0000     0.0000 </r>
       <r>    -0.9247     0.0000     0.0000 </r>
       <r>    -0.8899     0.0000     0.0000 </r>
       <r>    -0.8551     0.0000     0.0000 </r>
       <r>    -0.8203     0.0000     0.0000 </r>
       <r>    -0.7855     0.0000     0.0000 </r>
       <r>    -0.7507     0.0000     0.0000 </r>
       <r>    -0.7159     0.0000     0.0000 </r>
       <r>    -0.6811     0.0003     0.0000 </r>
       <r>    -0.6463     0.0019     0.0001 </r>
       <r>    -0.6114     0.0093     0.0004 </r>
       <r>    -0.5766     0.0363     0.0017 </r>
       <r>    -0.5418     0.1115     0.0055 </r>
       <r>    -0.5070     0.2703     0.0150 </r>
       <r>    -0.4722     0.5166     0.0329 </r>
       <r>    -0.4374     0.7786     0.0600 </r>
       <r>    -0.4026     0.9252     0.0922 </r>
       <r>    -0.3678     0.8671     0.1224 </r>
       <r>    -0.3330     0.6409     0.1447 </r>
       <r>    -0.2982     0.3738     0.1578 </r>
       <r>    -0.2633     0.1739     0.1638 </r>
       <r>    -0.2285     0.0732     0.1664 </r>
       <r>    -0.1937     0.0596     0.1684 </r>
       <r>    -0.1589     0.1291     0.1729 </r>
       <r>    -0.1241     0.2957     0.1832 </r>
       <r>    -0.0893     0.5486     0.2023 </r>
       <r>    -0.0545     0.8044     0.2303 </r>
       <r>    -0.0197     0.9318     0.2628 </r>
       <r>     0.0151     0.8585     0.2926 </r>
       <r>     0.0500     0.6510     0.3153 </r>
       <r>     0.0848     0.4702     0.3317 </r>
       <r>     0.1196     0.4488     0.3473 </r>
       <r>     0.1544     0.6021     0.3683 </r>
       <r>     0.1892     0.8186     0.3967 </r>
       <r>     0.2240     0.9328     0.4292 </r>
       <r>     0.2588     0.8487     0.4588 </r>
       <r>     0.2936     0.6110     0.4800 </r>
       <r>     0.3284     0.3507     0.4922 </r>
       <r>     0.3633     0.1748     0.4983 </r>
       <r>     0.3981     0.1234     0.5026 </r>
       <r>     0.4329     0.2030     0.5097 </r>
       <r>     0.4677     0.4124     0.5240 </r>
       <r>     0.5025     0.7248     0.5493 </r>
       <r>     0.5373     1.0829     0.5870 </r>
       <r>     0.5721     1.4601     0.6378 </r>
       <r>     0.6069     1.9064     0.7042 </r>
       <r>     0.6417     2.4518     0.7895 </r>
       <r>     0.6765     2.9621     0.8926 </r>
       <r>     0.7114     3.1877     1.0036 </r>
       <r>     0.7462     2.9950     1.1078 </r>
       <r>     0.7810     2.4890     1.1945 </r>
       <r>     0.8158     1.9130     1.2611 </r>
       <r>     0.8506     1.5149     1.3138 </r>
       <r>     0.8854     1.4796     1.3653 </r>
       <r>     0.9202     1.8411     1.4294 </r>
       <r>     0.9550     2.3845     1.5124 </r>
       <r>     0.9898     2.7176     1.6070 </r>
       <r>     1.0247     2.5549     1.6959 </r>
       <r>     1.0595     1.9609     1.7642 </r>
       <r>     1.0943     1.2972     1.8094 </r>
       <r>     1.1291     0.9587     1.8427 </r>
       <r>     1.1639     1.1667     1.8833 </r>
       <r>     1.1987     1.8905     1.9492 </r>
       <r>     1.2335     2.8256     2.0475 </r>
       <r>     1.2683     3.4894     2.1690 </r>
       <r>     1.3031     3.5253     2.2917 </r>
       <r>     1.3380     3.0142     2.3966 </r>
       <r>     1.3728     2.4513     2.4820 </r>
       <r>     1.4076     2.3563     2.5640 </r>
       <r>     1.4424     2.8560     2.6634 </r>
       <r>     1.4772     3.6032     2.7888 </r>
       <r>     1.5120     4.1007     2.9316 </r>
       <r>     1.5468     4.1215     3.0751 </r>
       <r>     1.5816     3.8091     3.2077 </r>
       <r>     1.6164     3.4394     3.3274 </r>
       <r>     1.6512     3.2087     3.4391 </r>
       <r>     1.6861     3.1954     3.5503 </r>
       <r>     1.7209     3.3311     3.6663 </r>
       <r>     1.7557     3.4048     3.7848 </r>
       <r>     1.7905     3.2620     3.8984 </r>
       <r>     1.8253     3.0016     4.0028 </r>
       <r>     1.8601     2.8628     4.1025 </r>
       <r>     1.8949     2.9798     4.2062 </r>
       <r>     1.9297     3.3526     4.3229 </r>
       <r>     1.9645     3.9250     4.4596 </r>
       <r>     1.9994     4.5084     4.6165 </r>
       <r>     2.0342     4.7316     4.7812 </r>
       <r>     2.0690     4.2964     4.9308 </r>
       <r>     2.1038     3.3115     5.0461 </r>
       <r>     2.1386     2.2825     5.1255 </r>
       <r>     2.1734     1.7712     5.1872 </r>
       <r>     2.2082     2.0732     5.2593 </r>
       <r>     2.2430     3.0860     5.3668 </r>
       <r>     2.2778     4.3283     5.5174 </r>
       <r>     2.3127     5.1262     5.6959 </r>
       <r>     2.3475     4.9907     5.8696 </r>
       <r>     2.3823     3.9662     6.0077 </r>
       <r>     2.4171     2.6015     6.0982 </r>
       <r>     2.4519     1.5558     6.1524 </r>
       <r>     2.4867     1.2394     6.1955 </r>
       <r>     2.5215     1.7336     6.2559 </r>
       <r>     2.5563     2.8358     6.3546 </r>
       <r>     2.5911     4.1006     6.4973 </r>
       <r>     2.6259     5.0134     6.6719 </r>
       <r>     2.6608     5.3078     6.8566 </r>
       <r>     2.6956     5.1060     7.0344 </r>
       <r>     2.7304     4.7141     7.1985 </r>
       <r>     2.7652     4.4111     7.3520 </r>
       <r>     2.8000     4.5162     7.5092 </r>
       <r>     2.8348     5.4539     7.6991 </r>
       <r>     2.8696     7.4712     7.9592 </r>
       <r>     2.9044    10.2415     8.3157 </r>
       <r>     2.9392    12.9147     8.7653 </r>
       <r>     2.9741    14.7123     9.2774 </r>
       <r>     3.0089    15.4805     9.8163 </r>
       <r>     3.0437    15.6376    10.3607 </r>
       <r>     3.0785    15.6576    10.9057 </r>
       <r>     3.1133    15.6667    11.4511 </r>
       <r>     3.1481    15.5044    11.9908 </r>
       <r>     3.1829    15.1055    12.5166 </r>
       <r>     3.2177    14.7070    13.0286 </r>
       <r>     3.2525    14.6053    13.5370 </r>
       <r>     3.2874    14.8764    14.0549 </r>
       <r>     3.3222    15.5095    14.5948 </r>
       <r>     3.3570    16.6312    15.1737 </r>
       <r>     3.3918    18.3123    15.8112 </r>
       <r>     3.4266    20.2184    16.5150 </r>
       <r>     3.4614    21.7394    17.2718 </r>
       <r>     3.4962    22.5638    18.0572 </r>
       <r>     3.5310    22.9853    18.8574 </r>
       <r>     3.5658    23.5279    19.6764 </r>
       <r>     3.6006    24.3677    20.5246 </r>
       <r>     3.6355    25.3059    21.4056 </r>
       <r>     3.6703    26.2580    22.3196 </r>
       <r>     3.7051    27.4631    23.2756 </r>
       <r>     3.7399    29.0960    24.2885 </r>
       <r>     3.7747    30.9312    25.3652 </r>
       <r>     3.8095    32.5684    26.4989 </r>
       <r>     3.8443    33.8089    27.6759 </r>
       <r>     3.8791    34.6285    28.8813 </r>
       <r>     3.9139    34.9136    30.0967 </r>
       <r>     3.9488    34.4571    31.2961 </r>
       <r>     3.9836    33.2703    32.4543 </r>
       <r>     4.0184    31.7979    33.5612 </r>
       <r>     4.0532    30.6638    34.6286 </r>
       <r>     4.0880    30.0390    35.6743 </r>
       <r>     4.1228    29.2842    36.6937 </r>
       <r>     4.1576    27.4698    37.6500 </r>
       <r>     4.1924    24.3565    38.4978 </r>
       <r>     4.2272    20.7352    39.2196 </r>
       <r>     4.2621    17.7999    39.8393 </r>
       <r>     4.2969    16.2733    40.4058 </r>
       <r>     4.3317    15.9774    40.9619 </r>
       <r>     4.3665    16.0304    41.5200 </r>
       <r>     4.4013    15.5607    42.0617 </r>
       <r>     4.4361    14.4952    42.5662 </r>
       <r>     4.4709    13.7226    43.0439 </r>
       <r>     4.5057    14.3764    43.5444 </r>
       <r>     4.5405    16.8740    44.1318 </r>
       <r>     4.5753    20.5915    44.8486 </r>
       <r>     4.6102    24.3723    45.6970 </r>
       <r>     4.6450    27.3133    46.6478 </r>
       <r>     4.6798    29.2016    47.6643 </r>
       <r>     4.7146    30.4041    48.7227 </r>
       <r>     4.7494    31.4190    49.8164 </r>
       <r>     4.7842    32.4640    50.9465 </r>
       <r>     4.8190    33.4181    52.1098 </r>
       <r>     4.8538    34.0864    53.2964 </r>
       <r>     4.8886    34.4140    54.4944 </r>
       <r>     4.9235    34.4100    55.6922 </r>
       <r>     4.9583    34.0140    56.8763 </r>
       <r>     4.9931    33.1974    58.0319 </r>
       <r>     5.0279    32.1308    59.1504 </r>
       <r>     5.0627    31.1006    60.2330 </r>
       <r>     5.0975    30.2850    61.2873 </r>
       <r>     5.1323    29.7279    62.3221 </r>
       <r>     5.1671    29.5141    63.3495 </r>
       <r>     5.2019    29.8653    64.3892 </r>
       <r>     5.2368    30.9861    65.4678 </r>
       <r>     5.2716    32.7869    66.6092 </r>
       <r>     5.3064    34.8045    67.8207 </r>
       <r>     5.3412    36.4895    69.0909 </r>
       <r>     5.3760    37.5762    70.3990 </r>
       <r>     5.4108    38.0936    71.7251 </r>
       <r>     5.4456    38.0538    73.0498 </r>
       <r>     5.4804    37.3201    74.3489 </r>
       <r>     5.5152    35.8711    75.5976 </r>
       <r>     5.5500    34.0369    76.7824 </r>
       <r>     5.5849    32.3370    77.9081 </r>
       <r>     5.6197    31.2118    78.9946 </r>
       <r>     5.6545    30.9484    80.0720 </r>
       <r>     5.6893    31.5538    81.1704 </r>
       <r>     5.7241    32.5384    82.3031 </r>
       <r>     5.7589    33.1067    83.4555 </r>
       <r>     5.7937    32.7629    84.5960 </r>
       <r>     5.8285    31.6590    85.6981 </r>
       <r>     5.8633    30.4026    86.7564 </r>
       <r>     5.8982    29.6885    87.7899 </r>
       <r>     5.9330    30.0363    88.8355 </r>
       <r>     5.9678    31.6214    89.9363 </r>
       <r>     6.0026    34.1777    91.1260 </r>
       <r>     6.0374    37.0333    92.4152 </r>
       <r>     6.0722    39.3252    93.7841 </r>
       <r>     6.1070    40.3821    95.1898 </r>
       <r>     6.1418    40.1063    96.5860 </r>
       <r>     6.1766    38.9825    97.9430 </r>
       <r>     6.2115    37.5694    99.2508 </r>
       <r>     6.2463    36.0153   100.5045 </r>
       <r>     6.2811    34.2049   101.6952 </r>
       <r>     6.3159    32.2358   102.8174 </r>
       <r>     6.3507    30.4605   103.8777 </r>
       <r>     6.3855    29.0901   104.8904 </r>
       <r>     6.4203    27.9824   105.8645 </r>
       <r>     6.4551    26.8372   106.7987 </r>
       <r>     6.4899    25.4824   107.6857 </r>
       <r>     6.5247    23.9548   108.5196 </r>
       <r>     6.5596    22.3479   109.2976 </r>
       <r>     6.5944    20.6479   110.0163 </r>
       <r>     6.6292    18.7799   110.6701 </r>
       <r>     6.6640    16.7285   111.2524 </r>
       <r>     6.6988    14.5508   111.7589 </r>
       <r>     6.7336    12.4070   112.1908 </r>
       <r>     6.7684    10.6200   112.5605 </r>
       <r>     6.8032     9.5131   112.8917 </r>
       <r>     6.8380     9.1371   113.2097 </r>
       <r>     6.8729     9.2876   113.5331 </r>
       <r>     6.9077     9.7679   113.8731 </r>
       <r>     6.9425    10.5339   114.2398 </r>
       <r>     6.9773    11.6741   114.6462 </r>
       <r>     7.0121    13.3359   115.1104 </r>
       <r>     7.0469    15.5290   115.6510 </r>
       <r>     7.0817    17.9113   116.2745 </r>
       <r>     7.1165    19.9469   116.9688 </r>
       <r>     7.1513    21.3601   117.7124 </r>
       <r>     7.1862    22.2755   118.4878 </r>
       <r>     7.2210    22.9355   119.2862 </r>
       <r>     7.2558    23.5503   120.1060 </r>
       <r>     7.2906    24.4416   120.9569 </r>
       <r>     7.3254    26.0239   121.8628 </r>
       <r>     7.3602    28.4089   122.8517 </r>
       <r>     7.3950    31.0337   123.9320 </r>
       <r>     7.4298    32.8310   125.0749 </r>
       <r>     7.4646    32.9783   126.2229 </r>
       <r>     7.4995    31.6042   127.3230 </r>
       <r>     7.5343    29.7060   128.3571 </r>
       <r>     7.5691    28.2997   129.3423 </r>
       <r>     7.6039    27.6602   130.3051 </r>
       <r>     7.6387    27.3127   131.2559 </r>
       <r>     7.6735    26.5436   132.1799 </r>
       <r>     7.7083    24.8295   133.0443 </r>
       <r>     7.7431    21.9757   133.8092 </r>
       <r>     7.7779    18.1190   134.4400 </r>
       <r>     7.8127    13.7212   134.9176 </r>
       <r>     7.8476     9.4982   135.2483 </r>
       <r>     7.8824     6.1583   135.4626 </r>
       <r>     7.9172     4.0358   135.6031 </r>
       <r>     7.9520     2.9532   135.7059 </r>
       <r>     7.9868     2.4429   135.7910 </r>
       <r>     8.0216     2.0770   135.8633 </r>
       <r>     8.0564     1.6417   135.9204 </r>
       <r>     8.0912     1.1340   135.9599 </r>
       <r>     8.1260     0.6605   135.9829 </r>
       <r>     8.1609     0.3172   135.9939 </r>
       <r>     8.1957     0.1237   135.9982 </r>
       <r>     8.2305     0.0388   135.9996 </r>
       <r>     8.2653     0.0097   135.9999 </r>
       <r>     8.3001     0.0019   136.0000 </r>
       <r>     8.3349     0.0003   136.0000 </r>
       <r>     8.3697     0.0000   136.0000 </r>
       <r>     8.4045     0.0000   136.0000 </r>
       <r>     8.4393     0.0000   136.0000 </r>
       <r>     8.4742     0.0000   136.0000 </r>
       <r>     8.5090     0.0000   136.0000 </r>
       <r>     8.5438     0.0000   136.0000 </r>
       <r>     8.5786     0.0000   136.0000 </r>
       <r>     8.6134     0.0000   136.0000 </r>
       <r>     8.6482     0.0000   136.0000 </r>
       <r>     8.6830     0.0000   136.0000 </r>
       <r>     8.7178     0.0000   136.0000 </r>
       <r>     8.7526     0.0000   136.0000 </r>
       <r>     8.7874     0.0000   136.0000 </r>
       <r>     8.8223     0.0000   136.0000 </r>
       <r>     8.8571     0.0000   136.0000 </r>
       <r>     8.8919     0.0000   136.0000 </r>
       <r>     8.9267     0.0000   136.0000 </r>
       <r>     8.9615     0.0000   136.0000 </r>
       <r>     8.9963     0.0000   136.0000 </r>
       <r>     9.0311     0.0000   136.0000 </r>
      </set>
     </set>
    </array>
   </total>
  </dos>
 </calculation>
 <structure name="finalpos" >
  <crystal>
   <varray name="basis" >
    <v>       6.38719263      -0.01775508      -0.00245665 </v>
    <v>      -1.71831494       9.49781495       0.00319165 </v>
    <v>       0.00151627      -0.00157205       4.15135277 </v>
   </varray>
   <i name="volume">    251.71262352 </i>
   <varray name="rec_basis" >
    <v>       0.15664207       0.02833921      -0.00004648 </v>
    <v>       0.00029284       0.10534034       0.00003978 </v>
    <v>       0.00009247      -0.00006422       0.24088528 </v>
   </varray>
  </crystal>
  <varray name="positions" >
   <v>       0.70373461       0.26877614       0.45518475 </v>
   <v>       0.89633545       0.06687743       0.45543486 </v>
   <v>       0.30231348       0.16918129       0.45508593 </v>
   <v>       0.00366133       0.21897526       0.95518658 </v>
   <v>       0.59940702       0.11908717       0.95532877 </v>
   <v>       0.59474946       0.62353932       0.95577279 </v>
   <v>       0.98884596       0.72325078       0.95573909 </v>
   <v>       0.28482032       0.67362028       0.45570273 </v>
   <v>       0.49616085       0.97079701       0.45566749 </v>
   <v>       0.69522881       0.77308946       0.45580565 </v>
   <v>       0.20002322       0.52194983       0.95551781 </v>
   <v>       0.40226487       0.32289641       0.95516370 </v>
   <v>       0.39584240       0.82535382       0.95578548 </v>
   <v>       0.50820549       0.47404769       0.45548210 </v>
   <v>       0.80379148       0.42443067       0.95543833 </v>
   <v>       0.09800961       0.87615770       0.45575728 </v>
   <v>       0.09981469       0.37139569       0.45523602 </v>
   <v>       0.19656622       0.02190876       0.95557751 </v>
   <v>       0.79790496       0.91998197       0.95583799 </v>
   <v>       0.89781477       0.57482332       0.45568516 </v>
  </varray>
 </structure>
</modeling>
