unknown system                          
           1
     6.369668    0.000000    0.000000
    -1.684025    9.487085    0.000000
     0.000065   -0.000420    4.287172
   V    Fe
  17   3
Direct configuration=     1
   0.76727300  0.26903500  0.41114300
   0.96889500  0.06369700  0.41194300
   0.35998400  0.16395400  0.41133900
   0.06865900  0.21602400  0.91129400
   0.65954700  0.11729200  0.91135700
   0.56937100  0.62382200  0.97426600
   0.96412000  0.72413700  0.97408000
   0.26285500  0.67279500  0.47408700
   0.46891500  0.97510600  0.47461500
   0.67361500  0.77525500  0.47429200
   0.16989600  0.52406200  0.97407100
   0.36132600  0.32326600  0.97454900
   0.37771800  0.82452500  0.97428700
   0.47627500  0.47506800  0.47436500
   0.77500100  0.42388800  0.97470300
   0.06779300  0.87453100  0.47428200
   0.06543900  0.37267700  0.47438500
   0.26729600  0.02376600  0.91257300
   0.77184000  0.92324900  0.97446900
   0.86967700  0.57399100  0.47429000
unknown system                          
           1
     6.344545   -0.058297    0.031010
    -1.764212    9.569987   -0.038882
     0.020940   -0.014289    4.251661
   V    Fe
  17   3
Direct configuration=     2
   0.74622427  0.26350363  0.41647449
   0.95296069  0.06523397  0.41061709
   0.35577300  0.17065308  0.41628547
   0.04722317  0.21255096  0.91939224
   0.65598358  0.12004000  0.91925802
   0.56684242  0.62289958  0.97564275
   0.96617448  0.72278965  0.97506224
   0.26202097  0.67469584  0.47455127
   0.49082787  0.97055638  0.45748333
   0.67327924  0.77599251  0.47551818
   0.16724844  0.52682796  0.97610800
   0.38485200  0.32800029  0.96847148
   0.38094265  0.82128466  0.97453113
   0.47918820  0.47481950  0.47262671
   0.77789964  0.42377470  0.96691788
   0.07315542  0.86973950  0.47287802
   0.08548764  0.37735726  0.46610985
   0.25344020  0.02460433  0.92664440
   0.77757719  0.91943296  0.97170811
   0.86839391  0.57538325  0.47410934
unknown system                          
           1
     6.326188   -0.100894    0.053669
    -1.822802    9.630562   -0.067293
     0.036194   -0.024423    4.225714
   V    Fe
  17   3
Direct configuration=     3
   0.73070431  0.25940824  0.42047838
   0.94126595  0.06627475  0.40973501
   0.35271812  0.17549232  0.41999648
   0.03142824  0.20994783  0.92545026
   0.65336875  0.12202308  0.92511655
   0.56497452  0.62222153  0.97666455
   0.96767203  0.72182383  0.97576618
   0.26142130  0.67606958  0.47491028
   0.50693269  0.96734046  0.44471415
   0.67303541  0.77652656  0.47642827
   0.16531925  0.52882196  0.97764113
   0.40218797  0.33152853  0.96389949
   0.38328751  0.81895201  0.97467257
   0.48133076  0.47465068  0.47132880
   0.78004541  0.42369737  0.96116558
   0.07706311  0.86629099  0.47178356
   0.10027262  0.38082851  0.45993678
   0.24323478  0.02516455  0.93709150
   0.78177044  0.91669133  0.96961827
   0.86746184  0.57638588  0.47399220
unknown system                          
           1
     6.286232   -0.140231    0.038443
    -1.872265    9.558871   -0.054380
     0.026511   -0.021015    4.165546
   V    Fe
  17   3
Direct configuration=     4
   0.72383088  0.26401609  0.42923226
   0.92979924  0.06451300  0.41747204
   0.34293227  0.17428175  0.42821610
   0.02957959  0.21408492  0.92726825
   0.63770997  0.11838784  0.92735392
   0.56369275  0.62250116  0.97738452
   0.96701162  0.72230381  0.97673271
   0.26035597  0.67668181  0.47739452
   0.51338947  0.96860534  0.44344741
   0.67556168  0.77528785  0.47576810
   0.16907708  0.52765040  0.97622653
   0.41084292  0.32940183  0.95494682
   0.38637654  0.82260225  0.97074058
   0.48643323  0.47557521  0.47029774
   0.78496823  0.42263068  0.95538668
   0.08875871  0.86973587  0.46946839
   0.10174362  0.37705420  0.45669366
   0.23110958  0.02343016  0.94113187
   0.79301838  0.91515464  0.96074420
   0.86930326  0.57624117  0.47448371
unknown system                          
           1
     6.267441   -0.158731    0.031282
    -1.895527    9.525155   -0.048307
     0.021958   -0.019412    4.137249
   V    Fe
  17   3
Direct configuration=     5
   0.72060143  0.26618480  0.43339019
   0.92436203  0.06365416  0.42114624
   0.33829453  0.17368740  0.43212262
   0.02872450  0.21604154  0.92812641
   0.63027368  0.11663360  0.92839984
   0.56308715  0.62263102  0.97772541
   0.96670159  0.72252982  0.97719200
   0.25985568  0.67696947  0.47857701
   0.51645442  0.96921781  0.44285227
   0.67675248  0.77470595  0.47545926
   0.17085133  0.52710289  0.97555977
   0.41492833  0.32841250  0.95069350
   0.38785524  0.82433881  0.96886464
   0.48885494  0.47602366  0.46981322
   0.78729219  0.42213581  0.95263961
   0.09431597  0.87139203  0.46837885
   0.10242055  0.37526895  0.45515440
   0.22535804  0.02258351  0.94304126
   0.79833542  0.91445008  0.95653196
   0.87017550  0.57617619  0.47472156
unknown system                          
           1
     6.368828   -0.187636    0.014694
    -1.967148    9.643111   -0.019722
     0.011522   -0.009289    4.174526
   V    Fe
  17   3
Direct configuration=     6
   0.71665556  0.27033112  0.44012189
   0.91689676  0.06231236  0.43055451
   0.32748416  0.17118338  0.43840299
   0.02694075  0.21945458  0.93070163
   0.61744283  0.11409580  0.93129571
   0.56426056  0.62341177  0.97816229
   0.96717257  0.72326436  0.97716929
   0.26041288  0.67677874  0.48050640
   0.51760451  0.97062813  0.44413284
   0.68087921  0.77290303  0.47357398
   0.17523832  0.52513872  0.97347605
   0.41814340  0.32518928  0.94447879
   0.39019166  0.82771282  0.96592935
   0.49348118  0.47654819  0.46734041
   0.79233812  0.42187468  0.94995604
   0.10392580  0.87621523  0.46459723
   0.10075378  0.37144598  0.45241688
   0.21475914  0.02077327  0.94486708
   0.80773598  0.91481750  0.94868072
   0.87317781  0.57606104  0.47402593
unknown system                          
           1
     6.347696   -0.181612    0.018151
    -1.952220    9.618526   -0.025680
     0.013697   -0.011398    4.166757
   V    Fe
  17   3
Direct configuration=     7
   0.71745719  0.26948105  0.43874070
   0.91842871  0.06259488  0.42861548
   0.32970547  0.17170642  0.43711119
   0.02730085  0.21875339  0.93017612
   0.62007990  0.11462621  0.93070467
   0.56401834  0.62325044  0.97807219
   0.96707475  0.72311285  0.97717464
   0.26029826  0.67681811  0.48010712
   0.51736586  0.97033737  0.44386940
   0.68003544  0.77327152  0.47395733
   0.17434143  0.52554022  0.97389993
   0.41749020  0.32584980  0.94575514
   0.38970757  0.82701615  0.96653857
   0.49253138  0.47643705  0.46784806
   0.79130345  0.42192503  0.95050574
   0.10194660  0.87521588  0.46537724
   0.10110268  0.37223349  0.45297823
   0.21693720  0.02115238  0.94449625
   0.80580786  0.91473485  0.95029509
   0.87256187  0.57608291  0.47416692
unknown system                          
           1
     6.350836   -0.169763    0.015501
    -1.935485    9.610752   -0.011207
     0.012127   -0.005427    4.162190
   V    Fe
  17   3
Direct configuration=     8
   0.71670132  0.26902094  0.43920135
   0.91850609  0.06307343  0.43159339
   0.32653856  0.17053389  0.43711234
   0.02534718  0.21840984  0.93206551
   0.61928704  0.11555517  0.93259729
   0.56641276  0.62355927  0.97748768
   0.96878553  0.72353420  0.97594963
   0.26223574  0.67635131  0.47969965
   0.51452357  0.97035910  0.44491677
   0.68219288  0.77266134  0.47276251
   0.17619319  0.52464023  0.97288039
   0.41462833  0.32474791  0.94646986
   0.38981878  0.82705904  0.96666265
   0.49352659  0.47617377  0.46634808
   0.79278872  0.42287266  0.95175731
   0.10204026  0.87636481  0.46348588
   0.10007778  0.37203514  0.45227175
   0.21586774  0.02120338  0.94394563
   0.80547335  0.91570213  0.95016485
   0.87454958  0.57628244  0.47301751
unknown system                          
           1
     6.360254   -0.134217    0.007552
    -1.885279    9.587429    0.032210
     0.007418    0.012488    4.148491
   V    Fe
  17   3
Direct configuration=     9
   0.71443911  0.26764152  0.44058816
   0.91873512  0.06450436  0.44053208
   0.31705458  0.16702548  0.43712192
   0.01949411  0.21738223  0.93773971
   0.61690417  0.11834365  0.93827017
   0.57358742  0.62447858  0.97573359
   0.97391015  0.72479511  0.97226944
   0.26804635  0.67494332  0.47848444
   0.50600418  0.97043304  0.44805667
   0.68866373  0.77082353  0.46918460
   0.18174992  0.52193316  0.96983130
   0.40605829  0.32144908  0.94862235
   0.39015182  0.82718715  0.96703505
   0.49651127  0.47538238  0.46184787
   0.79723403  0.42570986  0.95550912
   0.10231240  0.87981739  0.45779381
   0.09700706  0.37144479  0.45015013
   0.21266174  0.02136151  0.94228939
   0.80446372  0.91860767  0.94976299
   0.88050584  0.57687618  0.46956722
unknown system                          
           1
     6.370544   -0.101968    0.006350
    -1.839827    9.583150    0.043887
     0.006817    0.017461    4.146047
   V    Fe
  17   3
Direct configuration=    10
   0.71146391  0.26761002  0.44281522
   0.91358233  0.06478213  0.44274148
   0.31517537  0.16711264  0.43846139
   0.01540962  0.21739821  0.94062514
   0.61423831  0.11855284  0.94081057
   0.57819775  0.62417237  0.97364611
   0.97798055  0.72540117  0.96947718
   0.27173604  0.67455619  0.47618046
   0.50534549  0.97051179  0.44859629
   0.69003508  0.77161202  0.46780455
   0.18524187  0.52211458  0.96794448
   0.40375428  0.32111698  0.94896651
   0.39146679  0.82673843  0.96552089
   0.49820537  0.47419710  0.46106620
   0.79770586  0.42605211  0.95586141
   0.10091710  0.87886564  0.45669820
   0.09756893  0.37146917  0.45024128
   0.21004900  0.02150874  0.94340241
   0.80319166  0.91961448  0.95160745
   0.88422968  0.57675339  0.46792280
unknown system                          
           1
     6.394027   -0.028369    0.003607
    -1.736097    9.573384    0.070537
     0.005445    0.028809    4.140468
   V    Fe
  17   3
Direct configuration=    11
   0.70469183  0.26755851  0.44789875
   0.90184855  0.06545357  0.44778105
   0.31089625  0.16732459  0.44151814
   0.00611167  0.21746289  0.94721092
   0.60816649  0.11904808  0.94660830
   0.58869720  0.62344004  0.96888470
   0.98723644  0.72675662  0.96310015
   0.28014119  0.67364651  0.47092450
   0.50384482  0.97069605  0.44982752
   0.69314417  0.77340320  0.46464913
   0.19318776  0.52250397  0.96363734
   0.39851507  0.32037620  0.94975279
   0.39446737  0.82570562  0.96206712
   0.50208066  0.47147886  0.45929011
   0.79877434  0.42682938  0.95666404
   0.09775646  0.87670486  0.45420141
   0.09884748  0.37152037  0.45044969
   0.20409926  0.02186378  0.94594112
   0.80027976  0.92192073  0.95581192
   0.89270823  0.57644618  0.46417131
unknown system                          
           1
     6.384248    0.000379    0.008357
    -1.690754    9.480375    0.061502
     0.008635    0.025325    4.126899
   V    Fe
  17   3
Direct configuration=    12
   0.70300819  0.26852770  0.45155532
   0.89677404  0.06630195  0.44972092
   0.30558855  0.16738717  0.44558221
   0.00237468  0.21851229  0.94949899
   0.60283674  0.11860714  0.94887238
   0.59350322  0.62341589  0.96602439
   0.99014124  0.72565611  0.96081156
   0.28420737  0.67319385  0.46620051
   0.50103875  0.97035409  0.45090301
   0.69417805  0.77358414  0.46265024
   0.19785187  0.52272597  0.96135016
   0.39841764  0.32127257  0.95003024
   0.39708761  0.82534488  0.95947640
   0.50447209  0.47152089  0.45862215
   0.80077511  0.42653403  0.95537109
   0.09840148  0.87618333  0.45455229
   0.09928581  0.37139995  0.45181164
   0.19956123  0.02170210  0.94855934
   0.79918523  0.92178835  0.95670595
   0.89680611  0.57612760  0.46209122
unknown system                          
           1
     6.385949   -0.004620    0.007531
    -1.698639    9.496549    0.063073
     0.008080    0.025931    4.129259
   V    Fe
  17   3
Direct configuration=    13
   0.70330220  0.26835639  0.45091669
   0.89765794  0.06615018  0.44938119
   0.30651256  0.16737313  0.44487211
   0.00302600  0.21832590  0.94909870
   0.60376407  0.11868162  0.94847649
   0.59266662  0.62342284  0.96652436
   0.98963470  0.72585103  0.96121180
   0.28349906  0.67327578  0.46702564
   0.50152689  0.97041259  0.45071495
   0.69399813  0.77355303  0.46299912
   0.19704020  0.52268959  0.96175002
   0.39843532  0.32111510  0.94998149
   0.39663116  0.82540977  0.95992904
   0.50405590  0.47151481  0.45873913
   0.80042660  0.42658703  0.95559716
   0.09828884  0.87627523  0.45449138
   0.09920954  0.37142124  0.45157415
   0.20035102  0.02172794  0.94810172
   0.79937567  0.92181096  0.95654981
   0.89609258  0.57618583  0.46245503
unknown system                          
           1
     6.420160    0.002360    0.012383
    -1.697300    9.473221    0.039933
     0.011254    0.016219    4.152602
   V    Fe
  17   3
Direct configuration=    14
   0.70329184  0.26961000  0.45372957
   0.89524784  0.06727651  0.45084830
   0.30051681  0.16765313  0.44972788
   0.00138572  0.21972300  0.95031966
   0.59855343  0.11846340  0.95008284
   0.59588872  0.62369670  0.96361974
   0.99049300  0.72382954  0.96014244
   0.28646522  0.67295884  0.46223669
   0.49755012  0.97009506  0.45208169
   0.69516185  0.77295878  0.46112033
   0.20046414  0.52253417  0.95969849
   0.39986550  0.32228434  0.95066912
   0.39877069  0.82507075  0.95767142
   0.50620690  0.47279974  0.45793040
   0.80313540  0.42585449  0.95394672
   0.09982272  0.87623375  0.45581007
   0.09880539  0.37127951  0.45343256
   0.19603727  0.02146653  0.95091687
   0.79889174  0.92063410  0.95589201
   0.89894068  0.57571766  0.46051319
unknown system                          
           1
     6.413893    0.001082    0.011494
    -1.697545    9.477494    0.044171
     0.010673    0.017998    4.148326
   V    Fe
  17   3
Direct configuration=    15
   0.70329374  0.26937928  0.45321597
   0.89568681  0.06706909  0.45057944
   0.30160913  0.16759999  0.44884194
   0.00168444  0.21946602  0.95009552
   0.59950264  0.11850246  0.94978940
   0.59530167  0.62364740  0.96414916
   0.99033678  0.72420104  0.96033944
   0.28592477  0.67301834  0.46310986
   0.49827458  0.97015257  0.45183225
   0.69494985  0.77306840  0.46146337
   0.19984039  0.52256356  0.96007302
   0.39960492  0.32206971  0.95054299
   0.39838091  0.82513371  0.95808340
   0.50581495  0.47256425  0.45807684
   0.80264198  0.42598967  0.95424863
   0.09954337  0.87624132  0.45557025
   0.09887909  0.37130513  0.45309414
   0.19682317  0.02151341  0.95040350
   0.79897996  0.92085025  0.95601291
   0.89842185  0.57580437  0.46086793
unknown system                          
           1
     6.399761   -0.006619    0.008317
    -1.705183    9.478985    0.031752
     0.008577    0.012190    4.146500
   V    Fe
  17   3
Direct configuration=    16
   0.70323941  0.26940177  0.45293362
   0.89571344  0.06730868  0.45110535
   0.30069303  0.16816487  0.45036267
   0.00217192  0.21962683  0.95054524
   0.59873462  0.11902121  0.95051804
   0.59551085  0.62364009  0.96277549
   0.99019318  0.72361211  0.96024345
   0.28625581  0.67310172  0.46207722
   0.49703023  0.97046016  0.45240208
   0.69605647  0.77274760  0.46077129
   0.20013878  0.52215292  0.95931247
   0.40022963  0.32225646  0.95159433
   0.39799303  0.82492353  0.95781188
   0.50658053  0.47339360  0.45734429
   0.80332641  0.42560457  0.95425176
   0.09947366  0.87612492  0.45617007
   0.09852129  0.37141449  0.45359188
   0.19607680  0.02156343  0.95127874
   0.79889756  0.92014111  0.95515205
   0.89865838  0.57547993  0.46014808
unknown system                          
           1
     6.393349   -0.010113    0.006876
    -1.708648    9.479661    0.026117
     0.007627    0.009554    4.145671
   V    Fe
  17   3
Direct configuration=    17
   0.70321464  0.26941187  0.45280546
   0.89572579  0.06741752  0.45134441
   0.30027700  0.16842121  0.45105342
   0.00239382  0.21970009  0.95074977
   0.59838573  0.11925646  0.95084924
   0.59560568  0.62363647  0.96215200
   0.99012754  0.72334486  0.96019903
   0.28640619  0.67313938  0.46160870
   0.49646455  0.97059940  0.45266073
   0.69655948  0.77260228  0.46045708
   0.20027411  0.52196652  0.95896678
   0.40051409  0.32234171  0.95207203
   0.39781644  0.82482796  0.95768821
   0.50692901  0.47376991  0.45701315
   0.80363751  0.42543013  0.95425289
   0.09944202  0.87607225  0.45644216
   0.09835872  0.37146411  0.45381784
   0.19573754  0.02158610  0.95167585
   0.79885952  0.91981913  0.95476030
   0.89876563  0.57533263  0.45982097
unknown system                          
           1
     6.394525   -0.019184    0.002103
    -1.722367    9.512186    0.012553
     0.004499    0.003054    4.155140
   V    Fe
  17   3
Direct configuration=    18
   0.70275060  0.26928079  0.45240830
   0.89558410  0.06731341  0.45193067
   0.30026597  0.16919742  0.45245130
   0.00275694  0.21946074  0.95159828
   0.59807523  0.11968905  0.95170770
   0.59566426  0.62352494  0.96031224
   0.99022241  0.72296895  0.95985259
   0.28651343  0.67327282  0.46058956
   0.49572628  0.97098186  0.45332958
   0.69744148  0.77254988  0.45951116
   0.20035547  0.52161619  0.95816016
   0.40119778  0.32262154  0.95339658
   0.39715464  0.82487310  0.95763111
   0.50776360  0.47435700  0.45622918
   0.80382394  0.42488262  0.95448614
   0.09896217  0.87595654  0.45684707
   0.09845796  0.37159169  0.45422129
   0.19557527  0.02176207  0.95269792
   0.79851542  0.91936474  0.95416878
   0.89868806  0.57487469  0.45886041
unknown system                          
           1
     6.394021   -0.015296    0.004149
    -1.716487    9.498245    0.018367
     0.005840    0.005840    4.151081
   V    Fe
  17   3
Direct configuration=    19
   0.70294970  0.26933709  0.45257856
   0.89564472  0.06735777  0.45168017
   0.30026988  0.16886544  0.45185240
   0.00260116  0.21956258  0.95123557
   0.59820785  0.11950414  0.95134012
   0.59563974  0.62357309  0.96109915
   0.99018204  0.72312959  0.96000123
   0.28646768  0.67321608  0.46102516
   0.49604236  0.97081859  0.45304336
   0.69706370  0.77257218  0.45991533
   0.20032101  0.52176604  0.95850557
   0.40090418  0.32250134  0.95282940
   0.39743832  0.82485411  0.95765579
   0.50740576  0.47410610  0.45656322
   0.80374425  0.42511635  0.95438706
   0.09916781  0.87600604  0.45667431
   0.09841524  0.37153703  0.45404852
   0.19564444  0.02168666  0.95226066
   0.79866333  0.91955915  0.95442255
   0.89872183  0.57507062  0.45927188
unknown system                          
           1
     6.388293   -0.017781    0.001734
    -1.718638    9.500351    0.012483
     0.004258    0.002983    4.150864
   V    Fe
  17   3
Direct configuration=    20
   0.70257536  0.26919582  0.45260747
   0.89540031  0.06705827  0.45197156
   0.30080614  0.16918522  0.45230269
   0.00255393  0.21920359  0.95187870
   0.59832556  0.11945188  0.95174738
   0.59562416  0.62347045  0.96006725
   0.99033929  0.72310997  0.95956544
   0.28635272  0.67330953  0.46049534
   0.49611684  0.97093466  0.45340973
   0.69698861  0.77277141  0.45932022
   0.20032363  0.52173335  0.95816789
   0.40117398  0.32275738  0.95339121
   0.39715669  0.82512236  0.95772501
   0.50775467  0.47409776  0.45631868
   0.80347580  0.42480615  0.95455129
   0.09887877  0.87605855  0.45664836
   0.09882693  0.37155110  0.45417293
   0.19602529  0.02184946  0.95279682
   0.79829269  0.91963815  0.95456055
   0.89850363  0.57483495  0.45869149
unknown system                          
           1
     6.384137   -0.019584   -0.000018
    -1.720200    9.501879    0.008213
     0.003110    0.000910    4.150707
   V    Fe
  17   3
Direct configuration=    21
   0.70230341  0.26909325  0.45262814
   0.89522278  0.06684097  0.45218263
   0.30119586  0.16941744  0.45263004
   0.00251969  0.21894325  0.95234507
   0.59841114  0.11941408  0.95204295
   0.59561257  0.62339575  0.95931823
   0.99045342  0.72309567  0.95924921
   0.28626910  0.67337720  0.46011086
   0.49617106  0.97101897  0.45367577
   0.69693397  0.77291582  0.45888850
   0.20032544  0.52170956  0.95792279
   0.40137016  0.32294332  0.95379932
   0.39695218  0.82531695  0.95777540
   0.50800806  0.47409173  0.45614135
   0.80328077  0.42458107  0.95467005
   0.09866881  0.87609658  0.45662946
   0.09912603  0.37156141  0.45426340
   0.19630211  0.02196777  0.95318627
   0.79802350  0.91969542  0.95466063
   0.89834495  0.57466378  0.45826994
unknown system                          
           1
     6.386909   -0.020409   -0.001198
    -1.722160    9.507111    0.003735
     0.002337   -0.001189    4.154407
   V    Fe
  17   3
Direct configuration=    22
   0.70246783  0.26899171  0.45307507
   0.89538008  0.06667444  0.45261845
   0.30148509  0.16950924  0.45300985
   0.00255075  0.21871330  0.95291174
   0.59847564  0.11923456  0.95249113
   0.59565984  0.62344482  0.95843885
   0.99028556  0.72307532  0.95855490
   0.28606989  0.67349785  0.45933356
   0.49613025  0.97094546  0.45411623
   0.69640931  0.77302387  0.45821360
   0.20029616  0.52175328  0.95754971
   0.40148952  0.32314402  0.95408819
   0.39687137  0.82550728  0.95766480
   0.50820178  0.47407671  0.45604522
   0.80325858  0.42434442  0.95478258
   0.09856800  0.87623447  0.45656293
   0.09932623  0.37146176  0.45451419
   0.19671730  0.02210860  0.95372543
   0.79768991  0.91985672  0.95504265
   0.89816191  0.57454217  0.45765091
unknown system                          
           1
     6.386110   -0.020171   -0.000858
    -1.721595    9.505603    0.005026
     0.002560   -0.000584    4.153340
   V    Fe
  17   3
Direct configuration=    23
   0.70242043  0.26902094  0.45294635
   0.89533473  0.06672239  0.45249295
   0.30140171  0.16948275  0.45290039
   0.00254178  0.21877952  0.95274858
   0.59845704  0.11928626  0.95236208
   0.59564626  0.62343074  0.95869214
   0.99033398  0.72308123  0.95875492
   0.28612734  0.67346313  0.45955745
   0.49614199  0.97096661  0.45398938
   0.69656054  0.77299279  0.45840802
   0.20030462  0.52174071  0.95765717
   0.40145509  0.32308616  0.95400491
   0.39689466  0.82545245  0.95769661
   0.50814596  0.47408104  0.45607290
   0.80326498  0.42441261  0.95475024
   0.09859705  0.87619475  0.45658206
   0.09926852  0.37149046  0.45444197
   0.19659761  0.02206797  0.95357004
   0.79778602  0.91981022  0.95493259
   0.89821470  0.57457726  0.45782928
unknown system                          
           1
     6.384634   -0.019407   -0.001118
    -1.720077    9.500304    0.002799
     0.002387   -0.001587    4.152638
   V    Fe
  17   3
Direct configuration=    24
   0.70285254  0.26895074  0.45352095
   0.89569744  0.06670321  0.45299863
   0.30149210  0.16942051  0.45321239
   0.00269452  0.21873762  0.95316076
   0.59847525  0.11913072  0.95282607
   0.59565382  0.62353751  0.95807768
   0.98997581  0.72307365  0.95803644
   0.28588885  0.67357387  0.45874383
   0.49601603  0.97082084  0.45439852
   0.69599708  0.77300260  0.45781791
   0.20027085  0.52181450  0.95728559
   0.40150790  0.32317173  0.95411081
   0.39685845  0.82547527  0.95742464
   0.50820801  0.47411817  0.45604910
   0.80343404  0.42431115  0.95484492
   0.09859147  0.87628703  0.45651613
   0.09929439  0.37137961  0.45471776
   0.19686025  0.02213731  0.95400808
   0.79760703  0.91991521  0.95531986
   0.89811917  0.57457873  0.45731994
unknown system                          
           1
     6.384354   -0.019262   -0.001167
    -1.719789    9.499300    0.002377
     0.002354   -0.001778    4.152505
   V    Fe
  17   3
Direct configuration=    25
   0.70293451  0.26893742  0.45362992
   0.89576624  0.06669958  0.45309453
   0.30150925  0.16940871  0.45327156
   0.00272349  0.21872968  0.95323893
   0.59847871  0.11910122  0.95291405
   0.59565524  0.62355775  0.95796116
   0.98990787  0.72307221  0.95790017
   0.28584361  0.67359487  0.45858954
   0.49599214  0.97079319  0.45447610
   0.69589020  0.77300445  0.45770599
   0.20026444  0.52182850  0.95721512
   0.40151791  0.32318796  0.95413090
   0.39685158  0.82547960  0.95737307
   0.50821978  0.47412521  0.45604459
   0.80346610  0.42429190  0.95486287
   0.09859041  0.87630454  0.45650363
   0.09929930  0.37135859  0.45477005
   0.19691007  0.02215047  0.95409117
   0.79757309  0.91993514  0.95539331
   0.89810105  0.57457901  0.45722334
unknown system                          
           1
     6.383794   -0.018972   -0.001266
    -1.719213    9.497290    0.001532
     0.002289   -0.002158    4.152239
   V    Fe
  17   3
Direct configuration=    26
   0.70309845  0.26891079  0.45384788
   0.89590384  0.06669231  0.45328635
   0.30154355  0.16938510  0.45338990
   0.00278144  0.21871379  0.95339527
   0.59848564  0.11904222  0.95309002
   0.59565809  0.62359824  0.95772811
   0.98977198  0.72306931  0.95762762
   0.28575312  0.67363686  0.45828093
   0.49594437  0.97073789  0.45463126
   0.69567644  0.77300817  0.45748213
   0.20025162  0.52185648  0.95707419
   0.40153794  0.32322044  0.95417109
   0.39683784  0.82548825  0.95726991
   0.50824332  0.47413930  0.45603557
   0.80353024  0.42425340  0.95489876
   0.09858829  0.87633956  0.45647864
   0.09930912  0.37131653  0.45487464
   0.19700971  0.02217680  0.95425736
   0.79750520  0.91997500  0.95554023
   0.89806480  0.57457955  0.45703013
unknown system                          
           1
     6.384062   -0.019111   -0.001219
    -1.719489    9.498252    0.001936
     0.002320   -0.001976    4.152367
   V    Fe
  17   3
Direct configuration=    27
   0.70302000  0.26892354  0.45374358
   0.89583800  0.06669578  0.45319457
   0.30152713  0.16939640  0.45333327
   0.00275371  0.21872139  0.95332046
   0.59848232  0.11907045  0.95300582
   0.59565673  0.62357887  0.95783962
   0.98983701  0.72307070  0.95775804
   0.28579642  0.67361677  0.45842860
   0.49596723  0.97076435  0.45455702
   0.69577873  0.77300639  0.45758925
   0.20025775  0.52184309  0.95714163
   0.40152836  0.32320490  0.95415186
   0.39684442  0.82548411  0.95731927
   0.50823206  0.47413256  0.45603988
   0.80349955  0.42427183  0.95488159
   0.09858930  0.87632280  0.45649060
   0.09930442  0.37133666  0.45482460
   0.19696203  0.02216420  0.95417783
   0.79753768  0.91995592  0.95546993
   0.89808215  0.57457929  0.45712258
unknown system                          
           1
     6.384208   -0.019186   -0.001193
    -1.719639    9.498776    0.002157
     0.002337   -0.001877    4.152436
   V    Fe
  17   3
Direct configuration=    28
   0.70297725  0.26893048  0.45368675
   0.89580211  0.06669768  0.45314454
   0.30151819  0.16940255  0.45330242
   0.00273860  0.21872554  0.95327969
   0.59848052  0.11908584  0.95295994
   0.59565599  0.62356831  0.95790039
   0.98987245  0.72307146  0.95782911
   0.28582002  0.67360582  0.45850907
   0.49597968  0.97077877  0.45451656
   0.69583447  0.77300542  0.45764762
   0.20026110  0.52183579  0.95717838
   0.40152313  0.32319643  0.95414138
   0.39684800  0.82548186  0.95734617
   0.50822592  0.47412889  0.45604223
   0.80348282  0.42428187  0.95487223
   0.09858986  0.87631367  0.45649711
   0.09930185  0.37134762  0.45479732
   0.19693605  0.02215733  0.95413450
   0.79755539  0.91994552  0.95543161
   0.89809160  0.57457915  0.45717297
unknown system                          
           1
     6.386744   -0.018112   -0.001511
    -1.718720    9.500334    0.001511
     0.002130   -0.002197    4.153466
   V    Fe
  17   3
Direct configuration=    29
   0.70339239  0.26882960  0.45424114
   0.89613452  0.06675589  0.45381552
   0.30171560  0.16933513  0.45369507
   0.00300427  0.21878343  0.95375351
   0.59860474  0.11904923  0.95361889
   0.59551390  0.62360798  0.95728863
   0.98944234  0.72311722  0.95705840
   0.28544798  0.67365616  0.45759000
   0.49593608  0.97071997  0.45494088
   0.69548245  0.77300964  0.45703842
   0.20020467  0.52190279  0.95669899
   0.40165030  0.32315707  0.95431311
   0.39664710  0.82538865  0.95689875
   0.50825187  0.47417912  0.45596021
   0.80367967  0.42427235  0.95505462
   0.09845152  0.87629322  0.45637931
   0.09932714  0.37129682  0.45503783
   0.19697567  0.02214439  0.95459055
   0.79758159  0.92000043  0.95574288
   0.89805122  0.57464090  0.45667328
unknown system                          
           1
     6.387348   -0.017857   -0.001587
    -1.718501    9.500705    0.001357
     0.002081   -0.002273    4.153711
   V    Fe
  17   3
Direct configuration=    30
   0.70349117  0.26880559  0.45437307
   0.89621361  0.06676974  0.45397520
   0.30176257  0.16931908  0.45378851
   0.00306748  0.21879720  0.95386627
   0.59863431  0.11904051  0.95377570
   0.59548008  0.62361742  0.95714306
   0.98934001  0.72312812  0.95687499
   0.28535945  0.67366815  0.45737129
   0.49592571  0.97070598  0.45504185
   0.69539869  0.77301065  0.45689344
   0.20019123  0.52191873  0.95658492
   0.40168056  0.32314770  0.95435398
   0.39659930  0.82536647  0.95679227
   0.50825804  0.47419108  0.45594069
   0.80372651  0.42427008  0.95509802
   0.09841860  0.87628836  0.45635127
   0.09933316  0.37128474  0.45509506
   0.19698510  0.02214131  0.95469908
   0.79758782  0.92001349  0.95581695
   0.89804160  0.57465559  0.45655438
unknown system                          
           1
     6.386493   -0.016872   -0.002142
    -1.716813    9.498519    0.001907
     0.001720   -0.002097    4.152056
   V    Fe
  17   3
Direct configuration=    31
   0.70368951  0.26869922  0.45477845
   0.89634967  0.06682911  0.45469817
   0.30207015  0.16927131  0.45428597
   0.00337239  0.21888861  0.95443147
   0.59892935  0.11909292  0.95454830
   0.59517039  0.62358251  0.95652777
   0.98900160  0.72323050  0.95621869
   0.28498439  0.67367328  0.45650326
   0.49602409  0.97075547  0.45539913
   0.69532225  0.77305483  0.45634566
   0.20013601  0.52196491  0.95606318
   0.40192694  0.32301392  0.95466134
   0.39622002  0.82525257  0.95627359