  20  20   0   0
  0.1295360E+02  0.6364059E-09  0.9724653E-09  0.4256996E-09  0.5000000E-15
  1.000000000000000E-004
  CAR 
 unknown system                          
      8.85029983     -1.45383964  301      6.54841994      1.00000000
     -1.454  0.0000E+00  0.0000E+00
     -1.419  0.0000E+00  0.0000E+00
     -1.385  0.0000E+00  0.0000E+00
     -1.351  0.0000E+00  0.0000E+00
     -1.316  0.0000E+00  0.0000E+00
     -1.282  0.0000E+00  0.0000E+00
     -1.248  0.0000E+00  0.0000E+00
     -1.213  0.0000E+00  0.0000E+00
     -1.179  0.0000E+00  0.0000E+00
     -1.145  0.0000E+00  0.0000E+00
     -1.110  0.0000E+00  0.0000E+00
     -1.076  0.0000E+00  0.0000E+00
     -1.042  0.5387E-18  0.1850E-19
     -1.007  0.2370E-16  0.8327E-18
     -0.973  0.9988E-15  0.3514E-16
     -0.939  0.3334E-13  0.1180E-14
     -0.904  0.8813E-12  0.3145E-13
     -0.870  0.1846E-10  0.6653E-12
     -0.836  0.3062E-09  0.1118E-10
     -0.801  0.4026E-08  0.1495E-09
     -0.767  0.4195E-07  0.1590E-08
     -0.733  0.3465E-06  0.1349E-07
     -0.698  0.2269E-05  0.9144E-07
     -0.664  0.1178E-04  0.4962E-06
     -0.630  0.4853E-04  0.2163E-05
     -0.595  0.1585E-03  0.7609E-05
     -0.561  0.4108E-03  0.2172E-04
     -0.526  0.8446E-03  0.5073E-04
     -0.492  0.1378E-02  0.9804E-04
     -0.458  0.1783E-02  0.1593E-03
     -0.423  0.1831E-02  0.2222E-03
     -0.389  0.1493E-02  0.2734E-03
     -0.355  0.9708E-03  0.3068E-03
     -0.320  0.5242E-03  0.3248E-03
     -0.286  0.3066E-03  0.3353E-03
     -0.252  0.3623E-03  0.3477E-03
     -0.217  0.6822E-03  0.3712E-03
     -0.183  0.1185E-02  0.4119E-03
     -0.149  0.1666E-02  0.4691E-03
     -0.114  0.1862E-02  0.5331E-03
     -0.080  0.1652E-02  0.5898E-03
     -0.046  0.1163E-02  0.6298E-03
     -0.011  0.6510E-03  0.6521E-03
      0.023  0.2960E-03  0.6623E-03
      0.057  0.1368E-03  0.6670E-03
      0.092  0.1510E-03  0.6722E-03
      0.126  0.3422E-03  0.6839E-03
      0.160  0.7304E-03  0.7090E-03
      0.195  0.1258E-02  0.7523E-03
      0.229  0.1731E-02  0.8117E-03
      0.264  0.1926E-02  0.8779E-03
      0.298  0.1807E-02  0.9399E-03
      0.332  0.1602E-02  0.9950E-03
      0.367  0.1587E-02  0.1049E-02
      0.401  0.1814E-02  0.1112E-02
      0.435  0.2099E-02  0.1184E-02
      0.470  0.2295E-02  0.1263E-02
      0.504  0.2523E-02  0.1349E-02
      0.538  0.3053E-02  0.1454E-02
      0.573  0.3941E-02  0.1590E-02
      0.607  0.4837E-02  0.1756E-02
      0.641  0.5194E-02  0.1934E-02
      0.676  0.4729E-02  0.2097E-02
      0.710  0.3718E-02  0.2224E-02
      0.744  0.2846E-02  0.2322E-02
      0.779  0.2747E-02  0.2416E-02
      0.813  0.3620E-02  0.2541E-02
      0.847  0.5112E-02  0.2716E-02
      0.882  0.6456E-02  0.2938E-02
      0.916  0.6854E-02  0.3173E-02
      0.950  0.5985E-02  0.3379E-02
      0.985  0.4251E-02  0.3525E-02
      1.019  0.2439E-02  0.3609E-02
      1.054  0.1132E-02  0.3648E-02
      1.088  0.4673E-03  0.3664E-02
      1.122  0.3339E-03  0.3675E-02
      1.157  0.6884E-03  0.3699E-02
      1.191  0.1656E-02  0.3756E-02
      1.225  0.3360E-02  0.3871E-02
      1.260  0.5644E-02  0.4065E-02
      1.294  0.7981E-02  0.4339E-02
      1.328  0.9767E-02  0.4675E-02
      1.363  0.1072E-01  0.5043E-02
      1.397  0.1101E-01  0.5421E-02
      1.431  0.1091E-01  0.5796E-02
      1.466  0.1040E-01  0.6153E-02
      1.500  0.9166E-02  0.6468E-02
      1.534  0.7098E-02  0.6712E-02
      1.569  0.4712E-02  0.6873E-02
      1.603  0.2836E-02  0.6971E-02
      1.637  0.2007E-02  0.7040E-02
      1.672  0.2248E-02  0.7117E-02
      1.706  0.3287E-02  0.7230E-02
      1.740  0.4818E-02  0.7395E-02
      1.775  0.6530E-02  0.7620E-02
      1.809  0.7983E-02  0.7894E-02
      1.843  0.8636E-02  0.8190E-02
      1.878  0.8158E-02  0.8471E-02
      1.912  0.6767E-02  0.8703E-02
      1.947  0.5212E-02  0.8882E-02
      1.981  0.4366E-02  0.9032E-02
      2.015  0.4685E-02  0.9193E-02
      2.050  0.5866E-02  0.9394E-02
      2.084  0.7017E-02  0.9635E-02
      2.118  0.7356E-02  0.9888E-02
      2.153  0.6944E-02  0.1013E-01
      2.187  0.6724E-02  0.1036E-01
      2.221  0.7642E-02  0.1062E-01
      2.256  0.9560E-02  0.1095E-01
      2.290  0.1111E-01  0.1133E-01
      2.324  0.1087E-01  0.1170E-01
      2.359  0.8684E-02  0.1200E-01
      2.393  0.5796E-02  0.1220E-01
      2.427  0.3769E-02  0.1233E-01
      2.462  0.3460E-02  0.1245E-01
      2.496  0.4805E-02  0.1261E-01
      2.530  0.7125E-02  0.1286E-01
      2.565  0.9545E-02  0.1319E-01
      2.599  0.1135E-01  0.1358E-01
      2.633  0.1216E-01  0.1399E-01
      2.668  0.1186E-01  0.1440E-01
      2.702  0.1070E-01  0.1477E-01
      2.737  0.9351E-02  0.1509E-01
      2.771  0.8838E-02  0.1539E-01
      2.805  0.1014E-01  0.1574E-01
      2.840  0.1373E-01  0.1621E-01
      2.874  0.1921E-01  0.1687E-01
      2.908  0.2529E-01  0.1774E-01
      2.943  0.3023E-01  0.1878E-01
      2.977  0.3279E-01  0.1991E-01
      3.011  0.3303E-01  0.2104E-01
      3.046  0.3212E-01  0.2214E-01
      3.080  0.3144E-01  0.2322E-01
      3.114  0.3167E-01  0.2431E-01
      3.149  0.3261E-01  0.2543E-01
      3.183  0.3346E-01  0.2658E-01
      3.217  0.3328E-01  0.2772E-01
      3.252  0.3159E-01  0.2881E-01
      3.286  0.2896E-01  0.2980E-01
      3.320  0.2714E-01  0.3074E-01
      3.355  0.2796E-01  0.3170E-01
      3.389  0.3195E-01  0.3279E-01
      3.423  0.3806E-01  0.3410E-01
      3.458  0.4457E-01  0.3563E-01
      3.492  0.4991E-01  0.3735E-01
      3.526  0.5303E-01  0.3917E-01
      3.561  0.5348E-01  0.4101E-01
      3.595  0.5176E-01  0.4278E-01
      3.630  0.4939E-01  0.4448E-01
      3.664  0.4826E-01  0.4614E-01
      3.698  0.4963E-01  0.4784E-01
      3.733  0.5321E-01  0.4967E-01
      3.767  0.5737E-01  0.5164E-01
      3.801  0.6050E-01  0.5372E-01
      3.836  0.6213E-01  0.5585E-01
      3.870  0.6267E-01  0.5800E-01
      3.904  0.6245E-01  0.6015E-01
      3.939  0.6149E-01  0.6226E-01
      3.973  0.6001E-01  0.6432E-01
      4.007  0.5871E-01  0.6634E-01
      4.042  0.5836E-01  0.6834E-01
      4.076  0.5898E-01  0.7037E-01
      4.110  0.5961E-01  0.7242E-01
      4.145  0.5889E-01  0.7444E-01
      4.179  0.5602E-01  0.7636E-01
      4.213  0.5135E-01  0.7813E-01
      4.248  0.4624E-01  0.7971E-01
      4.282  0.4225E-01  0.8117E-01
      4.316  0.3990E-01  0.8254E-01
      4.351  0.3823E-01  0.8385E-01
      4.385  0.3575E-01  0.8508E-01
      4.420  0.3217E-01  0.8618E-01
      4.454  0.2895E-01  0.8718E-01
      4.488  0.2814E-01  0.8814E-01
      4.523  0.3071E-01  0.8920E-01
      4.557  0.3577E-01  0.9043E-01
      4.591  0.4152E-01  0.9185E-01
      4.626  0.4690E-01  0.9346E-01
      4.660  0.5233E-01  0.9526E-01
      4.694  0.5873E-01  0.9728E-01
      4.729  0.6602E-01  0.9955E-01
      4.763  0.7252E-01  0.1020E+00
      4.797  0.7587E-01  0.1046E+00
      4.832  0.7505E-01  0.1072E+00
      4.866  0.7129E-01  0.1097E+00
      4.900  0.6686E-01  0.1120E+00
      4.935  0.6290E-01  0.1141E+00
      4.969  0.5911E-01  0.1162E+00
      5.003  0.5530E-01  0.1181E+00
      5.038  0.5254E-01  0.1199E+00
      5.072  0.5225E-01  0.1217E+00
      5.106  0.5476E-01  0.1235E+00
      5.141  0.5895E-01  0.1256E+00
      5.175  0.6337E-01  0.1277E+00
      5.210  0.6739E-01  0.1301E+00
      5.244  0.7128E-01  0.1325E+00
      5.278  0.7513E-01  0.1351E+00
      5.313  0.7811E-01  0.1378E+00
      5.347  0.7910E-01  0.1405E+00
      5.381  0.7787E-01  0.1432E+00
      5.416  0.7533E-01  0.1457E+00
      5.450  0.7285E-01  0.1482E+00
      5.484  0.7119E-01  0.1507E+00
      5.519  0.7013E-01  0.1531E+00
      5.553  0.6881E-01  0.1555E+00
      5.587  0.6645E-01  0.1577E+00
      5.622  0.6312E-01  0.1599E+00
      5.656  0.6010E-01  0.1620E+00
      5.690  0.5909E-01  0.1640E+00
      5.725  0.6048E-01  0.1661E+00
      5.759  0.6265E-01  0.1682E+00
      5.793  0.6332E-01  0.1704E+00
      5.828  0.6181E-01  0.1725E+00
      5.862  0.5963E-01  0.1746E+00
      5.896  0.5875E-01  0.1766E+00
      5.931  0.5995E-01  0.1787E+00
      5.965  0.6243E-01  0.1808E+00
      5.999  0.6494E-01  0.1830E+00
      6.034  0.6720E-01  0.1853E+00
      6.068  0.7026E-01  0.1878E+00
      6.103  0.7500E-01  0.1903E+00
      6.137  0.8035E-01  0.1931E+00
      6.171  0.8352E-01  0.1960E+00
      6.206  0.8220E-01  0.1988E+00
      6.240  0.7622E-01  0.2014E+00
      6.274  0.6759E-01  0.2037E+00
      6.309  0.5935E-01  0.2058E+00
      6.343  0.5397E-01  0.2076E+00
      6.377  0.5223E-01  0.2094E+00
      6.412  0.5298E-01  0.2112E+00
      6.446  0.5397E-01  0.2131E+00
      6.480  0.5297E-01  0.2149E+00
      6.515  0.4879E-01  0.2166E+00
      6.549  0.4213E-01  0.2180E+00
      6.583  0.3551E-01  0.2192E+00
      6.618  0.3164E-01  0.2203E+00
      6.652  0.3128E-01  0.2214E+00
      6.686  0.3257E-01  0.2225E+00
      6.721  0.3256E-01  0.2236E+00
      6.755  0.2960E-01  0.2247E+00
      6.789  0.2436E-01  0.2255E+00
      6.824  0.1904E-01  0.2261E+00
      6.858  0.1585E-01  0.2267E+00
      6.893  0.1601E-01  0.2272E+00
      6.927  0.1952E-01  0.2279E+00
      6.961  0.2525E-01  0.2288E+00
      6.996  0.3136E-01  0.2299E+00
      7.030  0.3627E-01  0.2311E+00
      7.064  0.3970E-01  0.2325E+00
      7.099  0.4265E-01  0.2339E+00
      7.133  0.4611E-01  0.2355E+00
      7.167  0.5013E-01  0.2372E+00
      7.202  0.5389E-01  0.2391E+00
      7.236  0.5648E-01  0.2410E+00
      7.270  0.5738E-01  0.2430E+00
      7.305  0.5657E-01  0.2449E+00
      7.339  0.5468E-01  0.2468E+00
      7.373  0.5298E-01  0.2486E+00
      7.408  0.5271E-01  0.2505E+00
      7.442  0.5407E-01  0.2523E+00
      7.476  0.5599E-01  0.2542E+00
      7.511  0.5705E-01  0.2562E+00
      7.545  0.5680E-01  0.2581E+00
      7.579  0.5595E-01  0.2601E+00
      7.614  0.5534E-01  0.2620E+00
      7.648  0.5475E-01  0.2638E+00
      7.682  0.5289E-01  0.2657E+00
      7.717  0.4858E-01  0.2673E+00
      7.751  0.4167E-01  0.2688E+00
      7.786  0.3313E-01  0.2699E+00
      7.820  0.2436E-01  0.2707E+00
      7.854  0.1652E-01  0.2713E+00
      7.889  0.1024E-01  0.2717E+00
      7.923  0.5675E-02  0.2718E+00
      7.957  0.2741E-02  0.2719E+00
      7.992  0.1122E-02  0.2720E+00
      8.026  0.3812E-03  0.2720E+00
      8.060  0.1057E-03  0.2720E+00
      8.095  0.2371E-04  0.2720E+00
      8.129  0.4269E-05  0.2720E+00
      8.163  0.6151E-06  0.2720E+00
      8.198  0.7072E-07  0.2720E+00
      8.232  0.6478E-08  0.2720E+00
      8.266  0.4723E-09  0.2720E+00
      8.301  0.2738E-10  0.2720E+00
      8.335  0.1262E-11  0.2720E+00
      8.369  0.4620E-13  0.2720E+00
      8.404  0.1344E-14  0.2720E+00
      8.438  0.3125E-16  0.2720E+00
      8.472  0.0000E+00  0.2720E+00
      8.507  0.0000E+00  0.2720E+00
      8.541  0.0000E+00  0.2720E+00
      8.576  0.0000E+00  0.2720E+00
      8.610  0.0000E+00  0.2720E+00
      8.644  0.0000E+00  0.2720E+00
      8.679  0.0000E+00  0.2720E+00
      8.713  0.0000E+00  0.2720E+00
      8.747  0.0000E+00  0.2720E+00
      8.782  0.0000E+00  0.2720E+00
      8.816  0.0000E+00  0.2720E+00
      8.850  0.0000E+00  0.2720E+00
