   20   20  500    1
  0.1295360E+02  0.6364059E-09  0.9724653E-09  0.4256996E-09  0.5000000E-15
  1.000000000000000E-004
  CAR 
 unknown system                          
    109      8     68
 
  0.0000000E+00  0.0000000E+00  0.0000000E+00  0.8333333E-01
    1       -0.453840   1.000000
    2        1.278237   1.000000
    3        1.464627   1.000000
    4        2.704885   1.000000
    5        2.975331   1.000000
    6        2.985441   1.000000
    7        3.167507   1.000000
    8        3.250184   1.000000
    9        3.432696   1.000000
   10        3.489521   1.000000
   11        3.712618   1.000000
   12        3.789588   1.000000
   13        3.838151   1.000000
   14        3.914570   1.000000
   15        3.995113   1.000000
   16        4.042952   1.000000
   17        4.104071   1.000000
   18        4.106478   1.000000
   19        4.224890   1.000000
   20        4.315519   1.000000
   21        4.318469   1.000000
   22        4.340523   1.000000
   23        4.425436   1.000000
   24        4.535163   1.000000
   25        4.558803   1.000000
   26        4.702696   1.000000
   27        4.730572   1.000000
   28        4.761834   1.000000
   29        4.793113   1.000000
   30        4.812171   1.000000
   31        4.868576   1.000000
   32        4.956424   1.000000
   33        4.970675   1.000000
   34        5.118908   1.000000
   35        5.166428   1.000000
   36        5.237255   1.000000
   37        5.288501   1.000000
   38        5.309378   1.000000
   39        5.376573   1.000000
   40        5.451574   1.000000
   41        5.491322   1.000000
   42        5.539412   1.000000
   43        5.630502   1.000000
   44        5.775963   1.000000
   45        5.968712   1.000000
   46        6.021214   1.000000
   47        6.089691   1.000000
   48        6.177751   1.000000
   49        6.187899   1.000000
   50        6.240633   0.999993
   51        6.480594   0.831270
   52        6.483028   0.822460
   53        6.491692   0.788796
   54        6.629182   0.126697
   55        6.687543   0.024563
   56        6.744064   0.002830
   57        6.903248   0.000000
   58        6.978200   0.000000
   59        7.011708   0.000000
   60        7.080661   0.000000
   61        7.182530   0.000000
   62        7.221251   0.000000
   63        7.355252   0.000000
   64        7.464997   0.000000
   65        7.654247   0.000000
   66        7.669843   0.000000
   67        7.732397   0.000000
   68        7.778042   0.000000
 
  0.5000000E+00 -0.3354421E-16 -0.5638901E-21  0.8333333E-01
    1        0.429937   1.000000
    2        0.838192   1.000000
    3        1.712798   1.000000
    4        1.900395   1.000000
    5        2.607378   1.000000
    6        2.638794   1.000000
    7        2.930343   1.000000
    8        3.033472   1.000000
    9        3.052707   1.000000
   10        3.476596   1.000000
   11        3.716916   1.000000
   12        3.805940   1.000000
   13        3.871319   1.000000
   14        3.914121   1.000000
   15        3.985417   1.000000
   16        4.092128   1.000000
   17        4.119296   1.000000
   18        4.182552   1.000000
   19        4.210551   1.000000
   20        4.251968   1.000000
   21        4.370530   1.000000
   22        4.406243   1.000000
   23        4.438190   1.000000
   24        4.494726   1.000000
   25        4.522315   1.000000
   26        4.766233   1.000000
   27        4.806013   1.000000
   28        4.883426   1.000000
   29        4.934888   1.000000
   30        5.096422   1.000000
   31        5.131653   1.000000
   32        5.179424   1.000000
   33        5.230821   1.000000
   34        5.301875   1.000000
   35        5.313213   1.000000
   36        5.344815   1.000000
   37        5.365757   1.000000
   38        5.409617   1.000000
   39        5.506336   1.000000
   40        5.512045   1.000000
   41        5.732482   1.000000
   42        5.761212   1.000000
   43        5.768969   1.000000
   44        5.822464   1.000000
   45        5.843726   1.000000
   46        5.891933   1.000000
   47        5.915556   1.000000
   48        5.964007   1.000000
   49        5.982175   1.000000
   50        5.984425   1.000000
   51        6.023041   1.000000
   52        6.164680   1.000000
   53        6.231005   0.999996
   54        6.274852   0.999945
   55        6.414440   0.970938
   56        6.551354   0.483451
   57        7.112585   0.000000
   58        7.160568   0.000000
   59        7.188979   0.000000
   60        7.259578   0.000000
   61        7.319573   0.000000
   62        7.462560   0.000000
   63        7.550572   0.000000
   64        7.749786   0.000000
   65        7.777762   0.000000
   66        7.833299   0.000000
   67        7.834425   0.000000
   68        7.850300   0.000000
 
  0.0000000E+00  0.5000000E+00 -0.2276498E-20  0.8333333E-01
    1       -0.132078   1.000000
    2        0.241119   1.000000
    3        2.551134   1.000000
    4        2.712252   1.000000
    5        2.887928   1.000000
    6        3.008583   1.000000
    7        3.186170   1.000000
    8        3.413953   1.000000
    9        3.515744   1.000000
   10        3.549631   1.000000
   11        3.643701   1.000000
   12        3.721733   1.000000
   13        3.745952   1.000000
   14        3.848026   1.000000
   15        3.940833   1.000000
   16        3.964988   1.000000
   17        3.975309   1.000000
   18        4.017477   1.000000
   19        4.107834   1.000000
   20        4.195745   1.000000
   21        4.371388   1.000000
   22        4.419988   1.000000
   23        4.436065   1.000000
   24        4.549565   1.000000
   25        4.566174   1.000000
   26        4.612700   1.000000
   27        4.654921   1.000000
   28        4.763174   1.000000
   29        4.799548   1.000000
   30        4.823200   1.000000
   31        4.912417   1.000000
   32        5.029920   1.000000
   33        5.075941   1.000000
   34        5.107335   1.000000
   35        5.262295   1.000000
   36        5.311943   1.000000
   37        5.313588   1.000000
   38        5.404513   1.000000
   39        5.437397   1.000000
   40        5.443760   1.000000
   41        5.488068   1.000000
   42        5.507255   1.000000
   43        5.598293   1.000000
   44        5.628481   1.000000
   45        5.683091   1.000000
   46        5.797417   1.000000
   47        5.921936   1.000000
   48        6.173148   1.000000
   49        6.273748   0.999949
   50        6.320482   0.999367
   51        6.372969   0.993454
   52        6.535756   0.571071
   53        6.602327   0.222922
   54        6.761777   0.001275
   55        6.829618   0.000035
   56        6.982345   0.000000
   57        7.025729   0.000000
   58        7.086970   0.000000
   59        7.159645   0.000000
   60        7.162017   0.000000
   61        7.239942   0.000000
   62        7.261496   0.000000
   63        7.307356   0.000000
   64        7.315812   0.000000
   65        7.424047   0.000000
   66        7.493770   0.000000
   67        7.652116   0.000000
   68        7.758654   0.000000
 
  0.5000000E+00  0.5000000E+00 -0.9332697E-20  0.8333333E-01
    1        0.578585   1.000000
    2        0.909177   1.000000
    3        1.371230   1.000000
    4        1.479326   1.000000
    5        3.023897   1.000000
    6        3.127109   1.000000
    7        3.176130   1.000000
    8        3.196023   1.000000
    9        3.284988   1.000000
   10        3.386428   1.000000
   11        3.463235   1.000000
   12        3.495597   1.000000
   13        3.556536   1.000000
   14        3.734824   1.000000
   15        3.753748   1.000000
   16        3.769177   1.000000
   17        4.133512   1.000000
   18        4.190113   1.000000
   19        4.376418   1.000000
   20        4.394867   1.000000
   21        4.527254   1.000000
   22        4.590040   1.000000
   23        4.625972   1.000000
   24        4.701808   1.000000
   25        4.744479   1.000000
   26        4.770202   1.000000
   27        4.837076   1.000000
   28        4.856053   1.000000
   29        4.925788   1.000000
   30        4.973303   1.000000
   31        5.024604   1.000000
   32        5.119976   1.000000
   33        5.234866   1.000000
   34        5.235559   1.000000
   35        5.249563   1.000000
   36        5.292166   1.000000
   37        5.347563   1.000000
   38        5.424437   1.000000
   39        5.429006   1.000000
   40        5.509431   1.000000
   41        5.541058   1.000000
   42        5.583757   1.000000
   43        5.605888   1.000000
   44        5.696046   1.000000
   45        5.801012   1.000000
   46        5.914608   1.000000
   47        5.946942   1.000000
   48        6.006397   1.000000
   49        6.017949   1.000000
   50        6.153623   1.000000
   51        6.171723   1.000000
   52        6.213145   0.999999
   53        6.306518   0.999688
   54        6.431311   0.951157
   55        6.691915   0.021212
   56        7.000358   0.000000
   57        7.071311   0.000000
   58        7.123948   0.000000
   59        7.254058   0.000000
   60        7.257194   0.000000
   61        7.332896   0.000000
   62        7.341916   0.000000
   63        7.376653   0.000000
   64        7.499190   0.000000
   65        7.533802   0.000000
   66        7.644970   0.000000
   67        7.656325   0.000000
   68        7.719035   0.000000
 
  0.0000000E+00  0.0000000E+00  0.3333333E+00  0.1666667E+00
    1        0.642381   1.000000
    2        2.064870   1.000000
    3        2.282990   1.000000
    4        2.643188   1.000000
    5        3.011291   1.000000
    6        3.093895   1.000000
    7        3.377492   1.000000
    8        3.434250   1.000000
    9        3.521112   1.000000
   10        3.590424   1.000000
   11        3.665180   1.000000
   12        3.735537   1.000000
   13        3.780108   1.000000
   14        3.841657   1.000000
   15        3.888132   1.000000
   16        3.947057   1.000000
   17        3.989425   1.000000
   18        4.054679   1.000000
   19        4.105951   1.000000
   20        4.147395   1.000000
   21        4.209760   1.000000
   22        4.330957   1.000000
   23        4.581172   1.000000
   24        4.682699   1.000000
   25        4.711311   1.000000
   26        4.763558   1.000000
   27        4.801198   1.000000
   28        4.913223   1.000000
   29        4.946125   1.000000
   30        5.043485   1.000000
   31        5.068518   1.000000
   32        5.145700   1.000000
   33        5.200737   1.000000
   34        5.210728   1.000000
   35        5.247503   1.000000
   36        5.330953   1.000000
   37        5.347577   1.000000
   38        5.422386   1.000000
   39        5.474903   1.000000
   40        5.588916   1.000000
   41        5.606359   1.000000
   42        5.706230   1.000000
   43        5.731246   1.000000
   44        5.767414   1.000000
   45        5.828393   1.000000
   46        6.005056   1.000000
   47        6.107869   1.000000
   48        6.140762   1.000000
   49        6.150812   1.000000
   50        6.226187   0.999997
   51        6.246174   0.999990
   52        6.304396   0.999721
   53        6.396985   0.983888
   54        6.506436   0.723656
   55        6.657838   0.060883
   56        6.704024   0.013883
   57        7.000112   0.000000
   58        7.039747   0.000000
   59        7.186245   0.000000
   60        7.205703   0.000000
   61        7.259584   0.000000
   62        7.363345   0.000000
   63        7.416927   0.000000
   64        7.466271   0.000000
   65        7.560197   0.000000
   66        7.622821   0.000000
   67        7.662529   0.000000
   68        7.694188   0.000000
 
  0.5000000E+00 -0.3354421E-16  0.3333333E+00  0.1666667E+00
    1        1.370181   1.000000
    2        1.799895   1.000000
    3        2.304158   1.000000
    4        2.541899   1.000000
    5        2.906854   1.000000
    6        2.954532   1.000000
    7        3.091733   1.000000
    8        3.152648   1.000000
    9        3.238099   1.000000
   10        3.504974   1.000000
   11        3.568443   1.000000
   12        3.601732   1.000000
   13        3.654667   1.000000
   14        3.768884   1.000000
   15        3.845140   1.000000
   16        3.914335   1.000000
   17        3.941283   1.000000
   18        4.108315   1.000000
   19        4.178056   1.000000
   20        4.309587   1.000000
   21        4.355791   1.000000
   22        4.581919   1.000000
   23        4.625757   1.000000
   24        4.643055   1.000000
   25        4.737401   1.000000
   26        4.784966   1.000000
   27        4.846065   1.000000
   28        4.889709   1.000000
   29        4.972544   1.000000
   30        5.024095   1.000000
   31        5.135482   1.000000
   32        5.162608   1.000000
   33        5.271879   1.000000
   34        5.296772   1.000000
   35        5.355923   1.000000
   36        5.427991   1.000000
   37        5.472025   1.000000
   38        5.553024   1.000000
   39        5.638042   1.000000
   40        5.683695   1.000000
   41        5.755657   1.000000
   42        5.808278   1.000000
   43        5.869665   1.000000
   44        5.977883   1.000000
   45        6.017248   1.000000
   46        6.047135   1.000000
   47        6.097952   1.000000
   48        6.123993   1.000000
   49        6.128416   1.000000
   50        6.167865   1.000000
   51        6.232714   0.999996
   52        6.295137   0.999829
   53        6.339880   0.998407
   54        6.373604   0.993287
   55        6.458719   0.897703
   56        6.475456   0.848934
   57        6.479010   0.836851
   58        6.997290   0.000000
   59        7.072510   0.000000
   60        7.245374   0.000000
   61        7.260883   0.000000
   62        7.310932   0.000000
   63        7.447983   0.000000
   64        7.484492   0.000000
   65        7.550550   0.000000
   66        7.624433   0.000000
   67        7.695449   0.000000
   68        7.730030   0.000000
 
  0.0000000E+00  0.5000000E+00  0.3333333E+00  0.1666667E+00
    1        0.905754   1.000000
    2        1.294702   1.000000
    3        2.824776   1.000000
    4        2.963195   1.000000
    5        3.112682   1.000000
    6        3.200106   1.000000
    7        3.232830   1.000000
    8        3.308740   1.000000
    9        3.406387   1.000000
   10        3.454857   1.000000
   11        3.513046   1.000000
   12        3.533772   1.000000
   13        3.684795   1.000000
   14        3.785690   1.000000
   15        3.897255   1.000000
   16        3.909220   1.000000
   17        3.992744   1.000000
   18        4.073406   1.000000
   19        4.180030   1.000000
   20        4.228161   1.000000
   21        4.245551   1.000000
   22        4.323534   1.000000
   23        4.556675   1.000000
   24        4.682172   1.000000
   25        4.729556   1.000000
   26        4.786000   1.000000
   27        4.813566   1.000000
   28        4.852521   1.000000
   29        4.924403   1.000000
   30        4.960621   1.000000
   31        5.050316   1.000000
   32        5.161967   1.000000
   33        5.280215   1.000000
   34        5.314126   1.000000
   35        5.363596   1.000000
   36        5.423691   1.000000
   37        5.508496   1.000000
   38        5.558799   1.000000
   39        5.643789   1.000000
   40        5.742369   1.000000
   41        5.782113   1.000000
   42        5.806768   1.000000
   43        5.883881   1.000000
   44        5.899341   1.000000
   45        5.954099   1.000000
   46        6.016723   1.000000
   47        6.080402   1.000000
   48        6.108025   1.000000
   49        6.119990   1.000000
   50        6.159824   1.000000
   51        6.174924   1.000000
   52        6.223962   0.999998
   53        6.244003   0.999992
   54        6.388109   0.988309
   55        6.494238   0.778234
   56        6.545541   0.516237
   57        6.687412   0.024670
   58        6.714898   0.009277
   59        7.143922   0.000000
   60        7.207837   0.000000
   61        7.318080   0.000000
   62        7.436460   0.000000
   63        7.487167   0.000000
   64        7.532593   0.000000
   65        7.586529   0.000000
   66        7.635022   0.000000
   67        7.686009   0.000000
   68        7.755202   0.000000
 
  0.5000000E+00  0.5000000E+00  0.3333333E+00  0.1666667E+00
    1        1.482059   1.000000
    2        1.849801   1.000000
    3        2.112293   1.000000
    4        2.282597   1.000000
    5        2.898491   1.000000
    6        2.931847   1.000000
    7        3.249586   1.000000
    8        3.391206   1.000000
    9        3.490545   1.000000
   10        3.577340   1.000000
   11        3.589581   1.000000
   12        3.633809   1.000000
   13        3.739199   1.000000
   14        3.770519   1.000000
   15        3.811446   1.000000
   16        3.857859   1.000000
   17        3.878780   1.000000
   18        3.995976   1.000000
   19        4.033665   1.000000
   20        4.063580   1.000000
   21        4.109807   1.000000
   22        4.146727   1.000000
   23        4.659372   1.000000
   24        4.751699   1.000000
   25        4.792884   1.000000
   26        4.833810   1.000000
   27        4.939337   1.000000
   28        4.956324   1.000000
   29        5.107737   1.000000
   30        5.158903   1.000000
   31        5.183453   1.000000
   32        5.243520   1.000000
   33        5.327934   1.000000
   34        5.372187   1.000000
   35        5.402116   1.000000
   36        5.506670   1.000000
   37        5.528318   1.000000
   38        5.558331   1.000000
   39        5.596479   1.000000
   40        5.617799   1.000000
   41        5.738606   1.000000
   42        5.746644   1.000000
   43        5.866973   1.000000
   44        5.920986   1.000000
   45        5.964223   1.000000
   46        6.012840   1.000000
   47        6.108116   1.000000
   48        6.184830   1.000000
   49        6.197642   1.000000
   50        6.245499   0.999991
   51        6.360494   0.996066
   52        6.416246   0.969204
   53        6.419136   0.966252
   54        6.464569   0.882156
   55        6.539780   0.548622
   56        6.662193   0.053809
   57        6.734772   0.004202
   58        6.784507   0.000421
   59        6.908468   0.000000
   60        6.982615   0.000000
   61        7.118426   0.000000
   62        7.155814   0.000000
   63        7.307184   0.000000
   64        7.378305   0.000000
   65        7.424234   0.000000
   66        7.504515   0.000000
   67        7.532349   0.000000
   68        7.601808   0.000000
