       N       E                     dE             d eps       ncg     rms          rms(c)
DAV:   1     0.626580316245E+03    0.62658E+03   -0.22691E+04  1088   0.109E+03
DAV:   2    -0.749291115166E+02   -0.70151E+03   -0.67886E+03  1088   0.340E+02
DAV:   3    -0.193658239847E+03   -0.11873E+03   -0.11180E+03  1828   0.148E+02
DAV:   4    -0.205169607795E+03   -0.11511E+02   -0.10840E+02  1752   0.606E+01
DAV:   5    -0.205772402961E+03   -0.60280E+00   -0.59071E+00  1760   0.112E+01    0.566E+01
DAV:   6    -0.236816835583E+03   -0.31044E+02   -0.49374E+02  2096   0.183E+02    0.794E+01
DAV:   7    -0.184181811817E+03    0.52635E+02   -0.48674E+02  2136   0.159E+02    0.232E+01
DAV:   8    -0.195181046821E+03   -0.10999E+02   -0.21658E+02  2096   0.976E+01    0.489E+01
DAV:   9    -0.178276250326E+03    0.16905E+02   -0.17115E+02  2168   0.937E+01    0.163E+01
DAV:  10    -0.177898622142E+03    0.37763E+00   -0.20378E+01  1872   0.268E+01    0.109E+01
DAV:  11    -0.177548617356E+03    0.35000E+00   -0.37669E+00  1736   0.130E+01    0.924E+00
DAV:  12    -0.177440528713E+03    0.10809E+00   -0.16132E+00  1728   0.853E+00    0.872E+00
DAV:  13    -0.177052790447E+03    0.38774E+00   -0.33676E+00  1736   0.133E+01    0.580E+00
DAV:  14    -0.177070920294E+03   -0.18130E-01   -0.17498E+00  2064   0.112E+01    0.501E+00
DAV:  15    -0.176934059317E+03    0.13686E+00   -0.62611E-01  2144   0.669E+00    0.268E+00
DAV:  16    -0.176915768748E+03    0.18291E-01   -0.13383E-01  2128   0.269E+00    0.215E+00
DAV:  17    -0.176904431379E+03    0.11337E-01   -0.12631E-01  2072   0.271E+00    0.152E+00
DAV:  18    -0.176890424873E+03    0.14007E-01   -0.88066E-02  2056   0.241E+00    0.805E-01
DAV:  19    -0.176889573594E+03    0.85128E-03   -0.27647E-02  1984   0.145E+00    0.755E-01
DAV:  20    -0.176886641104E+03    0.29325E-02   -0.18415E-02  1984   0.120E+00    0.445E-01
DAV:  21    -0.176886303910E+03    0.33719E-03   -0.28652E-03  1936   0.475E-01    0.366E-01
DAV:  22    -0.176885644481E+03    0.65943E-03   -0.33367E-03  2048   0.489E-01    0.199E-01
DAV:  23    -0.176885479613E+03    0.16487E-03   -0.18275E-03  2048   0.348E-01    0.117E-01
DAV:  24    -0.176885398468E+03    0.81145E-04   -0.84834E-04  1760   0.237E-01    0.530E-02
DAV:  25    -0.176885382434E+03    0.16034E-04   -0.23184E-04  1768   0.117E-01    0.291E-02
DAV:  26    -0.176885379016E+03    0.34186E-05   -0.37646E-05  1000   0.551E-02
   1 F= -.17688538E+03 E0= -.17681620E+03  d E =-.176885E+03
       N       E                     dE             d eps       ncg     rms          rms(c)
DAV:   1    -0.178622412903E+03   -0.17370E+01   -0.12538E+02  1088   0.402E+01    0.867E+00
DAV:   2    -0.189508584531E+03   -0.10886E+02   -0.65315E+01  2112   0.777E+01    0.396E+01
DAV:   3    -0.178223722037E+03    0.11285E+02   -0.41257E+01  1968   0.592E+01    0.482E+00
DAV:   4    -0.178515845805E+03   -0.29212E+00   -0.69685E+00  1832   0.164E+01    0.497E+00
DAV:   5    -0.178380566592E+03    0.13528E+00   -0.17809E+00  2008   0.117E+01    0.365E+00
DAV:   6    -0.178379288928E+03    0.12777E-02   -0.88353E-01  2080   0.852E+00    0.361E+00
DAV:   7    -0.178293084024E+03    0.86205E-01   -0.49359E-01  2056   0.690E+00    0.144E+00
DAV:   8    -0.178285725358E+03    0.73587E-02   -0.15271E-01  2152   0.322E+00    0.107E+00
DAV:   9    -0.178282503862E+03    0.32215E-02   -0.40502E-02  2064   0.189E+00    0.808E-01
DAV:  10    -0.178280309045E+03    0.21948E-02   -0.29529E-02  2064   0.169E+00    0.571E-01
DAV:  11    -0.178280931662E+03   -0.62262E-03   -0.17464E-02  2048   0.128E+00    0.506E-01
DAV:  12    -0.178278706489E+03    0.22252E-02   -0.13426E-02  2072   0.898E-01    0.212E-01
DAV:  13    -0.178278744782E+03   -0.38292E-04   -0.13389E-03  1792   0.261E-01    0.204E-01
DAV:  14    -0.178278627128E+03    0.11765E-03   -0.33205E-04  1936   0.159E-01    0.143E-01
DAV:  15    -0.178278589348E+03    0.37780E-04   -0.19993E-04  1736   0.986E-02    0.114E-01
DAV:  16    -0.178278527657E+03    0.61691E-04   -0.15135E-04  1944   0.102E-01    0.458E-02
DAV:  17    -0.178278523698E+03    0.39583E-05   -0.25599E-05   856   0.431E-02
   2 F= -.17827852E+03 E0= -.17821918E+03  d E =-.139314E+01
       N       E                     dE             d eps       ncg     rms          rms(c)
DAV:   1    -0.178825003449E+03   -0.54648E+00   -0.79898E+01  1088   0.329E+01    0.692E+00
DAV:   2    -0.186081991079E+03   -0.72570E+01   -0.41556E+01  2112   0.640E+01    0.331E+01
DAV:   3    -0.178645762803E+03    0.74362E+01   -0.28372E+01  2056   0.514E+01    0.374E+00
DAV:   4    -0.178787126636E+03   -0.14136E+00   -0.38502E+00  1836   0.128E+01    0.345E+00
DAV:   5    -0.178723629558E+03    0.63497E-01   -0.85742E-01  1936   0.859E+00    0.253E+00
DAV:   6    -0.178726259427E+03   -0.26299E-02   -0.50689E-01  1992   0.698E+00    0.264E+00
DAV:   7    -0.178682182883E+03    0.44077E-01   -0.27373E-01  2016   0.547E+00    0.118E+00
DAV:   8    -0.178674360857E+03    0.78220E-02   -0.11348E-01  2144   0.263E+00    0.768E-01
DAV:   9    -0.178672300158E+03    0.20607E-02   -0.22113E-02  2112   0.139E+00    0.525E-01
DAV:  10    -0.178671222612E+03    0.10775E-02   -0.14317E-02  2080   0.120E+00    0.356E-01
DAV:  11    -0.178671692567E+03   -0.46996E-03   -0.85516E-03  2064   0.928E-01    0.361E-01
DAV:  12    -0.178670572232E+03    0.11203E-02   -0.63297E-03  2072   0.674E-01    0.117E-01
DAV:  13    -0.178670595546E+03   -0.23314E-04   -0.73813E-04  1768   0.202E-01    0.114E-01
DAV:  14    -0.178670553387E+03    0.42159E-04   -0.16028E-04  1656   0.103E-01    0.823E-02
DAV:  15    -0.178670531096E+03    0.22292E-04   -0.10526E-04  1552   0.740E-02    0.540E-02
DAV:  16    -0.178670510064E+03    0.21032E-04   -0.59388E-05  1264   0.655E-02    0.196E-02
DAV:  17    -0.178670510311E+03   -0.24721E-06   -0.26636E-05   864   0.314E-02
   3 F= -.17867051E+03 E0= -.17861708E+03  d E =-.178513E+01
       N       E                     dE             d eps       ncg     rms          rms(c)
DAV:   1    -0.179860697193E+03   -0.11902E+01   -0.80793E+01  1160   0.569E+01    0.156E+01
DAV:   2    -0.215184332133E+03   -0.35324E+02   -0.24890E+02  1900   0.144E+02    0.602E+01
DAV:   3    -0.178019579465E+03    0.37165E+02   -0.94890E+01  2032   0.621E+01    0.536E+00
DAV:   4    -0.179271173974E+03   -0.12516E+01   -0.14811E+01  1864   0.258E+01    0.667E+00
DAV:   5    -0.178876575736E+03    0.39460E+00   -0.39605E+00  2064   0.165E+01    0.242E+00
DAV:   6    -0.178951855434E+03   -0.75280E-01   -0.11846E+00  2136   0.887E+00    0.411E+00
DAV:   7    -0.178820051234E+03    0.13180E+00   -0.70092E-01  2080   0.773E+00    0.170E+00
DAV:   8    -0.178818845915E+03    0.12053E-02   -0.20621E-01  2080   0.413E+00    0.156E+00
DAV:   9    -0.178805298106E+03    0.13548E-01   -0.10040E-01  2048   0.261E+00    0.650E-01
DAV:  10    -0.178805616694E+03   -0.31859E-03   -0.29660E-02  2096   0.159E+00    0.689E-01
DAV:  11    -0.178802909029E+03    0.27077E-02   -0.13623E-02  1936   0.119E+00    0.428E-01
DAV:  12    -0.178802016928E+03    0.89210E-03   -0.89013E-03  1952   0.782E-01    0.248E-01
DAV:  13    -0.178801867220E+03    0.14971E-03   -0.32707E-03  1592   0.411E-01    0.123E-01
DAV:  14    -0.178801800399E+03    0.66821E-04   -0.12738E-03  1904   0.285E-01    0.635E-02
DAV:  15    -0.178801801511E+03   -0.11122E-05   -0.39645E-04  1784   0.155E-01    0.580E-02
DAV:  16    -0.178801787199E+03    0.14312E-04   -0.22155E-04  1656   0.118E-01    0.353E-02
DAV:  17    -0.178801791333E+03   -0.41340E-05   -0.40796E-05  1048   0.541E-02
   4 F= -.17880179E+03 E0= -.17874965E+03  d E =-.131281E+00
       N       E                     dE             d eps       ncg     rms          rms(c)
DAV:   1    -0.179021577110E+03   -0.21979E+00   -0.10035E+01  1184   0.187E+01    0.544E+00
DAV:   2    -0.184161388386E+03   -0.51398E+01   -0.25177E+01  2096   0.508E+01    0.293E+01
DAV:   3    -0.178831904271E+03    0.53295E+01   -0.20672E+01  2120   0.432E+01    0.293E+00
DAV:   4    -0.178923334351E+03   -0.91430E-01   -0.26098E+00  1940   0.103E+01    0.282E+00
DAV:   5    -0.178887575886E+03    0.35758E-01   -0.34674E-01  1904   0.574E+00    0.189E+00
DAV:   6    -0.178879783571E+03    0.77923E-02   -0.14142E-01  1976   0.372E+00    0.150E+00
DAV:   7    -0.178868414186E+03    0.11369E-01   -0.72534E-02  2112   0.267E+00    0.695E-01
DAV:   8    -0.178865077380E+03    0.33368E-02   -0.30031E-02  2128   0.135E+00    0.344E-01
DAV:   9    -0.178864932132E+03    0.14525E-03   -0.36102E-03  2024   0.534E-01    0.278E-01
DAV:  10    -0.178864875474E+03    0.56658E-04   -0.35121E-03  2064   0.583E-01    0.258E-01
DAV:  11    -0.178864941187E+03   -0.65713E-04   -0.31028E-03  2080   0.531E-01    0.223E-01
DAV:  12    -0.178864547689E+03    0.39350E-03   -0.23002E-03  2080   0.359E-01    0.840E-02
DAV:  13    -0.178864551064E+03   -0.33748E-05   -0.19307E-04  1760   0.107E-01    0.748E-02
DAV:  14    -0.178864532700E+03    0.18364E-04   -0.52838E-05  1184   0.680E-02    0.560E-02
DAV:  15    -0.178864522955E+03    0.97449E-05   -0.38657E-05   948   0.448E-02
   5 F= -.17886452E+03 E0= -.17881252E+03  d E =-.194013E+00
       N       E                     dE             d eps       ncg     rms          rms(c)
DAV:   1    -0.179030451073E+03   -0.16592E+00   -0.20878E+01  1088   0.186E+01    0.384E+00
DAV:   2    -0.181347941277E+03   -0.23175E+01   -0.12776E+01  2088   0.346E+01    0.194E+01
DAV:   3    -0.178962828717E+03    0.23851E+01   -0.10027E+01  2120   0.303E+01    0.160E+00
DAV:   4    -0.179021630092E+03   -0.58801E-01   -0.10204E+00  1980   0.704E+00    0.219E+00
DAV:   5    -0.178997896674E+03    0.23733E-01   -0.28053E-01  1928   0.548E+00    0.163E+00
DAV:   6    -0.178987113389E+03    0.10783E-01   -0.14700E-01  1968   0.375E+00    0.115E+00
DAV:   7    -0.178980413660E+03    0.66997E-02   -0.58223E-02  2120   0.239E+00    0.602E-01
DAV:   8    -0.178977188135E+03    0.32255E-02   -0.34991E-02  2000   0.126E+00    0.237E-01
DAV:   9    -0.178977363824E+03   -0.17569E-03   -0.53756E-03  2096   0.678E-01    0.266E-01
DAV:  10    -0.178976909676E+03    0.45415E-03   -0.36688E-03  2112   0.602E-01    0.120E-01
DAV:  11    -0.178977084780E+03   -0.17510E-03   -0.20313E-03  2080   0.418E-01    0.160E-01
DAV:  12    -0.178976833713E+03    0.25107E-03   -0.14235E-03  2072   0.306E-01    0.313E-02
DAV:  13    -0.178976841005E+03   -0.72923E-05   -0.11009E-04  1624   0.757E-02    0.356E-02
DAV:  14    -0.178976831162E+03    0.98428E-05   -0.24340E-05   856   0.558E-02
   6 F= -.17897683E+03 E0= -.17892855E+03  d E =-.112308E+00
       N       E                     dE             d eps       ncg     rms          rms(c)
DAV:   1    -0.178979752853E+03   -0.29118E-02   -0.39200E-01  1088   0.264E+00    0.516E-01
DAV:   2    -0.179022180914E+03   -0.42428E-01   -0.23790E-01  2104   0.468E+00    0.258E+00
DAV:   3    -0.178978801146E+03    0.43380E-01   -0.16961E-01  2112   0.398E+00    0.184E-01
DAV:   4    -0.178979734878E+03   -0.93373E-03   -0.13705E-02  1752   0.837E-01    0.242E-01
DAV:   5    -0.178979151776E+03    0.58310E-03   -0.43273E-03  1992   0.645E-01    0.129E-01
DAV:   6    -0.178979239455E+03   -0.87679E-04   -0.22398E-03  2128   0.411E-01    0.164E-01
DAV:   7    -0.178979042600E+03    0.19685E-03   -0.11867E-03  2112   0.314E-01    0.599E-02
DAV:   8    -0.178979020158E+03    0.22442E-04   -0.24325E-04  1944   0.150E-01    0.297E-02
DAV:   9    -0.178979018932E+03    0.12255E-05   -0.80562E-05  1480   0.767E-02
   7 F= -.17897902E+03 E0= -.17893103E+03  d E =-.114496E+00
       N       E                     dE             d eps       ncg     rms          rms(c)
DAV:   1    -0.178998573113E+03   -0.19553E-01   -0.20825E+00  1104   0.638E+00    0.143E+00
DAV:   2    -0.179361535545E+03   -0.36296E+00   -0.20133E+00  2120   0.136E+01    0.754E+00
DAV:   3    -0.178990012314E+03    0.37152E+00   -0.14155E+00  2144   0.110E+01    0.554E-01
DAV:   4    -0.178996047616E+03   -0.60353E-02   -0.10776E-01  1752   0.217E+00    0.577E-01
DAV:   5    -0.178992635021E+03    0.34126E-02   -0.33448E-02  1760   0.140E+00    0.252E-01
DAV:   6    -0.178993580278E+03   -0.94526E-03   -0.12142E-02  2128   0.992E-01    0.415E-01
DAV:   7    -0.178992101196E+03    0.14791E-02   -0.81207E-03  2136   0.777E-01    0.130E-01
DAV:   8    -0.178992089197E+03    0.11999E-04   -0.14539E-03  2024   0.366E-01    0.115E-01
DAV:   9    -0.178991998575E+03    0.90621E-04   -0.54530E-04  1968   0.246E-01    0.511E-02
DAV:  10    -0.178991977376E+03    0.21199E-04   -0.25380E-04  1872   0.121E-01    0.234E-02
DAV:  11    -0.178991976810E+03    0.56635E-06   -0.24211E-05   840   0.634E-02
   8 F= -.17899198E+03 E0= -.17894347E+03  d E =-.129579E-01
       N       E                     dE             d eps       ncg     rms          rms(c)
DAV:   1    -0.178992513009E+03   -0.53563E-03   -0.67786E-02  1104   0.114E+00    0.257E-01
DAV:   2    -0.179004048587E+03   -0.11536E-01   -0.62830E-02  2088   0.244E+00    0.135E+00
DAV:   3    -0.178992224738E+03    0.11824E-01   -0.45069E-02  2088   0.202E+00    0.944E-02
DAV:   4    -0.178992429905E+03   -0.20517E-03   -0.34958E-03  1760   0.390E-01    0.108E-01
DAV:   5    -0.178992317406E+03    0.11250E-03   -0.99972E-04  1832   0.260E-01    0.502E-02
DAV:   6    -0.178992338984E+03   -0.21577E-04   -0.44662E-04  2096   0.181E-01    0.720E-02
DAV:   7    -0.178992294787E+03    0.44196E-04   -0.26542E-04  2024   0.133E-01    0.247E-02
DAV:   8    -0.178992291437E+03    0.33503E-05   -0.24184E-05   872   0.679E-02
   9 F= -.17899229E+03 E0= -.17894369E+03  d E =-.132725E-01
       N       E                     dE             d eps       ncg     rms          rms(c)
DAV:   1    -0.179020523885E+03   -0.28229E-01   -0.17013E+00  1236   0.775E+00    0.218E+00
DAV:   2    -0.179802057897E+03   -0.78153E+00   -0.40289E+00  2088   0.198E+01    0.112E+01
DAV:   3    -0.178983059016E+03    0.81900E+00   -0.32336E+00  2136   0.177E+01    0.619E-01
DAV:   4    -0.179007506509E+03   -0.24447E-01   -0.30364E-01  1808   0.369E+00    0.124E+00
DAV:   5    -0.178995904439E+03    0.11602E-01   -0.69228E-02  1904   0.264E+00    0.663E-01
DAV:   6    -0.178995398669E+03    0.50577E-03   -0.26924E-02  2048   0.145E+00    0.584E-01
DAV:   7    -0.178993292697E+03    0.21060E-02   -0.10571E-02  2064   0.102E+00    0.222E-01
DAV:   8    -0.178992997724E+03    0.29497E-03   -0.33498E-03  2056   0.489E-01    0.887E-02
DAV:   9    -0.178992980842E+03    0.16882E-04   -0.75681E-04  1824   0.214E-01    0.689E-02
DAV:  10    -0.178992955105E+03    0.25737E-04   -0.55179E-04  2160   0.190E-01    0.451E-02
DAV:  11    -0.178992954238E+03    0.86773E-06   -0.15548E-04  1864   0.123E-01    0.457E-02
DAV:  12    -0.178992939104E+03    0.15133E-04   -0.76828E-05  1616   0.891E-02    0.226E-02
DAV:  13    -0.178992938889E+03    0.21538E-06   -0.20391E-05   784   0.452E-02
  10 F= -.17899294E+03 E0= -.17894468E+03  d E =-.647452E-03
       N       E                     dE             d eps       ncg     rms          rms(c)
DAV:   1    -0.179001418613E+03   -0.84795E-02   -0.37378E-01  1244   0.368E+00    0.102E+00
DAV:   2    -0.179181465799E+03   -0.18005E+00   -0.95244E-01  2112   0.938E+00    0.534E+00
DAV:   3    -0.178993709704E+03    0.18776E+00   -0.72578E-01  2128   0.798E+00    0.314E-01
DAV:   4    -0.178997984112E+03   -0.42744E-02   -0.56330E-02  1728   0.157E+00    0.484E-01
DAV:   5    -0.178995512998E+03    0.24711E-02   -0.17604E-02  1716   0.105E+00    0.167E-01
DAV:   6    -0.178995720763E+03   -0.20777E-03   -0.39259E-03  2120   0.515E-01    0.207E-01
DAV:   7    -0.178995360336E+03    0.36043E-03   -0.18045E-03  2160   0.385E-01    0.646E-02
DAV:   8    -0.178995350183E+03    0.10153E-04   -0.37010E-04  1968   0.188E-01    0.532E-02
DAV:   9    -0.178995326006E+03    0.24176E-04   -0.16874E-04  1808   0.136E-01    0.287E-02
DAV:  10    -0.178995318996E+03    0.70105E-05   -0.71720E-05  1376   0.718E-02
  11 F= -.17899532E+03 E0= -.17894689E+03  d E =-.302756E-02
       N       E                     dE             d eps       ncg     rms          rms(c)
DAV:   1    -0.178996583855E+03   -0.12578E-02   -0.15309E-01  1088   0.140E+00    0.139E-01
DAV:   2    -0.178998108883E+03   -0.15250E-02   -0.15060E-02  2160   0.915E-01    0.411E-01
DAV:   3    -0.178996747398E+03    0.13615E-02   -0.81461E-03  2176   0.771E-01    0.107E-01
DAV:   4    -0.178996805817E+03   -0.58419E-04   -0.15584E-03  2032   0.348E-01    0.132E-01
DAV:   5    -0.178996631807E+03    0.17401E-03   -0.10494E-03  2032   0.271E-01    0.397E-02
DAV:   6    -0.178996650332E+03   -0.18525E-04   -0.50650E-04  2032   0.174E-01    0.542E-02
DAV:   7    -0.178996616139E+03    0.34192E-04   -0.21135E-04  1952   0.119E-01    0.183E-02
DAV:   8    -0.178996613332E+03    0.28073E-05   -0.15015E-05   664   0.506E-02
  12 F= -.17899661E+03 E0= -.17894816E+03  d E =-.129434E-02
       N       E                     dE             d eps       ncg     rms          rms(c)
DAV:   1    -0.178997123562E+03   -0.50742E-03   -0.24167E-01  1088   0.175E+00    0.179E-01
DAV:   2    -0.178999868410E+03   -0.27448E-02   -0.25930E-02  2160   0.122E+00    0.562E-01
DAV:   3    -0.178997381285E+03    0.24871E-02   -0.14319E-02  2160   0.103E+00    0.139E-01
DAV:   4    -0.178997445251E+03   -0.63966E-04   -0.25114E-03  2048   0.432E-01    0.154E-01
DAV:   5    -0.178997198623E+03    0.24663E-03   -0.15443E-03  2048   0.327E-01    0.528E-02
DAV:   6    -0.178997219955E+03   -0.21332E-04   -0.84076E-04  1848   0.220E-01    0.649E-02
DAV:   7    -0.178997167270E+03    0.52685E-04   -0.31873E-04  1872   0.140E-01    0.193E-02
DAV:   8    -0.178997164483E+03    0.27872E-05   -0.28425E-05   952   0.580E-02
  13 F= -.17899716E+03 E0= -.17894868E+03  d E =-.184549E-02
       N       E                     dE             d eps       ncg     rms          rms(c)
DAV:   1    -0.178997578477E+03   -0.41121E-03   -0.82514E-02  1088   0.105E+00    0.127E-01
DAV:   2    -0.179000049498E+03   -0.24710E-02   -0.14591E-02  2112   0.115E+00    0.589E-01
DAV:   3    -0.178997628762E+03    0.24207E-02   -0.91743E-03  2128   0.951E-01    0.637E-02
DAV:   4    -0.178997670374E+03   -0.41613E-04   -0.96696E-04  1768   0.216E-01    0.672E-02
DAV:   5    -0.178997623358E+03    0.47017E-04   -0.48978E-04  2088   0.178E-01    0.415E-02
DAV:   6    -0.178997640222E+03   -0.16864E-04   -0.22159E-04  1936   0.156E-01    0.639E-02
DAV:   7    -0.178997608444E+03    0.31778E-04   -0.15246E-04  1880   0.119E-01    0.129E-02
DAV:   8    -0.178997607646E+03    0.79764E-06   -0.17704E-05   848   0.460E-02
  14 F= -.17899761E+03 E0= -.17894915E+03  d E =-.443164E-03
       N       E                     dE             d eps       ncg     rms          rms(c)
DAV:   1    -0.178997743342E+03   -0.13490E-03   -0.90665E-02  1088   0.111E+00    0.132E-01
DAV:   2    -0.179000328437E+03   -0.25851E-02   -0.15718E-02  2120   0.119E+00    0.599E-01
DAV:   3    -0.178997802912E+03    0.25255E-02   -0.97346E-03  2128   0.979E-01    0.712E-02
DAV:   4    -0.178997838711E+03   -0.35799E-04   -0.10934E-03  1760   0.227E-01    0.674E-02
DAV:   5    -0.178997785960E+03    0.52751E-04   -0.52258E-04  1776   0.166E-01    0.357E-02
DAV:   6    -0.178997801732E+03   -0.15772E-04   -0.22930E-04  1960   0.142E-01    0.573E-02
DAV:   7    -0.178997774590E+03    0.27142E-04   -0.13306E-04  1864   0.116E-01    0.156E-02
DAV:   8    -0.178997772867E+03    0.17224E-05   -0.18886E-05   808   0.485E-02
  15 F= -.17899777E+03 E0= -.17894934E+03  d E =-.608384E-03
       N       E                     dE             d eps       ncg     rms          rms(c)
DAV:   1    -0.178998432709E+03   -0.65812E-03   -0.52897E-02  1192   0.122E+00    0.324E-01
DAV:   2    -0.179016824826E+03   -0.18392E-01   -0.97841E-02  2128   0.301E+00    0.172E+00
DAV:   3    -0.178997728982E+03    0.19096E-01   -0.74257E-02  2120   0.256E+00    0.933E-02
DAV:   4    -0.178998132405E+03   -0.40342E-03   -0.52920E-03  1728   0.483E-01    0.147E-01
DAV:   5    -0.178997920885E+03    0.21152E-03   -0.14337E-03  1816   0.337E-01    0.624E-02
DAV:   6    -0.178997937922E+03   -0.17037E-04   -0.49609E-04  2136   0.181E-01    0.721E-02
DAV:   7    -0.178997892460E+03    0.45461E-04   -0.25577E-04  2056   0.125E-01    0.204E-02
DAV:   8    -0.178997890507E+03    0.19536E-05   -0.22720E-05   888   0.647E-02
  16 F= -.17899789E+03 E0= -.17894940E+03  d E =-.117639E-03
       N       E                     dE             d eps       ncg     rms          rms(c)
DAV:   1    -0.178997916496E+03   -0.24036E-04   -0.21293E-03  1216   0.245E-01    0.681E-02
DAV:   2    -0.178998774360E+03   -0.85786E-03   -0.45587E-03  2136   0.651E-01    0.366E-01
DAV:   3    -0.178997888580E+03    0.88578E-03   -0.34601E-03  2136   0.560E-01    0.226E-02
DAV:   4    -0.178997902424E+03   -0.13844E-04   -0.22781E-04  1736   0.105E-01    0.253E-02
DAV:   5    -0.178997896795E+03    0.56287E-05   -0.40128E-05  1140   0.611E-02
  17 F= -.17899790E+03 E0= -.17894941E+03  d E =-.123928E-03
       N       E                     dE             d eps       ncg     rms          rms(c)
DAV:   1    -0.178997901031E+03    0.13929E-05   -0.29238E-04  1404   0.952E-02    0.321E-02
DAV:   2    -0.178998104811E+03   -0.20378E-03   -0.10997E-03  2144   0.300E-01    0.181E-01
DAV:   3    -0.178997893939E+03    0.21087E-03   -0.84415E-04  2144   0.269E-01    0.910E-03
DAV:   4    -0.178997896212E+03   -0.22736E-05   -0.32206E-05  1028   0.452E-02
  18 F= -.17899790E+03 E0= -.17894942E+03  d E =-.123345E-03
       N       E                     dE             d eps       ncg     rms          rms(c)
DAV:   1    -0.178998004079E+03   -0.11014E-03   -0.82784E-03  1088   0.320E-01    0.407E-02
DAV:   2    -0.178998250657E+03   -0.24658E-03   -0.14964E-03  2160   0.352E-01    0.192E-01
DAV:   3    -0.178998009367E+03    0.24129E-03   -0.95505E-04  2144   0.296E-01    0.198E-02
DAV:   4    -0.178998013795E+03   -0.44276E-05   -0.99827E-05  1560   0.705E-02
  19 F= -.17899801E+03 E0= -.17894957E+03  d E =-.117582E-03
       N       E                     dE             d eps       ncg     rms          rms(c)
DAV:   1    -0.178998093932E+03   -0.84565E-04   -0.74305E-02  1088   0.956E-01    0.119E-01
DAV:   2    -0.178999972334E+03   -0.18784E-02   -0.12012E-02  2152   0.978E-01    0.531E-01
DAV:   3    -0.178998129495E+03    0.18428E-02   -0.74106E-03  2144   0.819E-01    0.597E-02
DAV:   4    -0.178998168548E+03   -0.39053E-04   -0.94373E-04  1776   0.215E-01    0.728E-02
DAV:   5    -0.178998102284E+03    0.66264E-04   -0.54603E-04  1784   0.183E-01    0.283E-02
DAV:   6    -0.178998115059E+03   -0.12774E-04   -0.19187E-04  1936   0.125E-01    0.444E-02
DAV:   7    -0.178998093688E+03    0.21370E-04   -0.10022E-04  1680   0.905E-02    0.116E-02
DAV:   8    -0.178998093536E+03    0.15195E-06   -0.11495E-05   656   0.403E-02
  20 F= -.17899809E+03 E0= -.17894970E+03  d E =-.197324E-03
       N       E                     dE             d eps       ncg     rms          rms(c)
DAV:   1    -0.178998107737E+03   -0.14049E-04   -0.44953E-03  1088   0.237E-01    0.291E-02
DAV:   2    -0.178998225012E+03   -0.11728E-03   -0.75581E-04  2160   0.252E-01    0.130E-01
DAV:   3    -0.178998109148E+03    0.11586E-03   -0.47364E-04  2152   0.211E-01    0.163E-02
DAV:   4    -0.178998109869E+03   -0.72114E-06   -0.49059E-05  1240   0.545E-02
  21 F= -.17899811E+03 E0= -.17894970E+03  d E =-.213656E-03
       N       E                     dE             d eps       ncg     rms          rms(c)
DAV:   1    -0.178998102612E+03    0.65354E-05   -0.36829E-03  1088   0.216E-01    0.295E-02
DAV:   2    -0.178998219988E+03   -0.11738E-03   -0.73392E-04  2104   0.247E-01    0.134E-01
DAV:   3    -0.178998101432E+03    0.11856E-03   -0.46745E-04  2096   0.208E-01    0.148E-02
DAV:   4    -0.178998102601E+03   -0.11693E-05   -0.48406E-05  1200   0.546E-02
  22 F= -.17899810E+03 E0= -.17894968E+03  d E =-.206389E-03
       N       E                     dE             d eps       ncg     rms          rms(c)
DAV:   1    -0.178998101634E+03   -0.20139E-06   -0.43466E-04  1100   0.856E-02    0.990E-03
DAV:   2    -0.178998121592E+03   -0.19959E-04   -0.11754E-04  1824   0.106E-01    0.510E-02
DAV:   3    -0.178998101600E+03    0.19992E-04   -0.54137E-05  1360   0.890E-02    0.726E-03
DAV:   4    -0.178998102409E+03   -0.80959E-06   -0.15411E-05   700   0.191E-02
  23 F= -.17899810E+03 E0= -.17894969E+03  d E =-.206197E-03
       N       E                     dE             d eps       ncg     rms          rms(c)
DAV:   1    -0.178998105207E+03   -0.36072E-05   -0.41562E-04  1088   0.723E-02    0.998E-03
DAV:   2    -0.178998117107E+03   -0.11900E-04   -0.65648E-05  1424   0.828E-02    0.414E-02
DAV:   3    -0.178998104865E+03    0.12242E-04   -0.38657E-05  1112   0.743E-02    0.490E-03
DAV:   4    -0.178998105169E+03   -0.30474E-06   -0.65583E-06   556   0.212E-02
  24 F= -.17899811E+03 E0= -.17894969E+03  d E =-.208957E-03
       N       E                     dE             d eps       ncg     rms          rms(c)
DAV:   1    -0.178998169678E+03   -0.64813E-04   -0.78615E-03  1088   0.373E-01    0.729E-02
DAV:   2    -0.178999067174E+03   -0.89750E-03   -0.49871E-03  2104   0.685E-01    0.375E-01
DAV:   3    -0.178998145441E+03    0.92173E-03   -0.35073E-03  2104   0.568E-01    0.258E-02
DAV:   4    -0.178998162974E+03   -0.17533E-04   -0.28693E-04  1760   0.115E-01    0.333E-02
DAV:   5    -0.178998150417E+03    0.12556E-04   -0.76917E-05  1376   0.863E-02    0.175E-02
DAV:   6    -0.178998150549E+03   -0.13127E-06   -0.31428E-05   972   0.627E-02
  25 F= -.17899815E+03 E0= -.17894977E+03  d E =-.453793E-04
       N       E                     dE             d eps       ncg     rms          rms(c)
DAV:   1    -0.178998285043E+03   -0.13463E-03   -0.70558E-02  1088   0.112E+00    0.227E-01
DAV:   2    -0.179007242904E+03   -0.89579E-02   -0.49204E-02  2104   0.214E+00    0.119E+00
DAV:   3    -0.178998041822E+03    0.92011E-02   -0.34987E-02  2104   0.178E+00    0.738E-02
DAV:   4    -0.178998225095E+03   -0.18327E-03   -0.25140E-03  1744   0.345E-01    0.102E-01
DAV:   5    -0.178998120489E+03    0.10461E-03   -0.79015E-04  2000   0.268E-01    0.521E-02
DAV:   6    -0.178998142390E+03   -0.21901E-04   -0.36886E-04  2072   0.178E-01    0.755E-02
DAV:   7    -0.178998097108E+03    0.45282E-04   -0.23887E-04  1992   0.136E-01    0.188E-02
DAV:   8    -0.178998094732E+03    0.23757E-05   -0.28249E-05   896   0.619E-02
  26 F= -.17899809E+03 E0= -.17894978E+03  d E =0.104370E-04
       N       E                     dE             d eps       ncg     rms          rms(c)
DAV:   1    -0.178998205322E+03   -0.10821E-03   -0.22843E-02  1088   0.631E-01    0.129E-01
DAV:   2    -0.179001187443E+03   -0.29821E-02   -0.16314E-02  2112   0.123E+00    0.680E-01
DAV:   3    -0.178998135029E+03    0.30524E-02   -0.11674E-02  2120   0.104E+00    0.424E-02
DAV:   4    -0.178998193558E+03   -0.58529E-04   -0.80907E-04  1776   0.197E-01    0.556E-02
DAV:   5    -0.178998164694E+03    0.28865E-04   -0.24995E-04  1928   0.146E-01    0.292E-02
DAV:   6    -0.178998170529E+03   -0.58355E-05   -0.86456E-05  1672   0.959E-02
  27 F= -.17899817E+03 E0= -.17894982E+03  d E =-.653596E-04
