 vasp.5.4.4.18Apr17-6-g9f103f2a35 (build Jul 11 2019 11:52:51) complex          
  
 executed on             LinuxIFC date 2023.11.29  16:48:29
 running on    4 total cores
 distrk:  each k-point on    4 cores,    1 groups
 distr:  one band on NCORES_PER_BAND=   1 cores,    4 groups


--------------------------------------------------------------------------------------------------------


 INCAR:
 POTCAR:    PAW_PBE V 08Apr2002                   
 POTCAR:    PAW_PBE Fe 06Sep2000                  
 POTCAR:    PAW_PBE V 08Apr2002                   
   VRHFIN =V: p6 d4 s1                                                          
   LEXCH  = PE                                                                  
   EATOM  =   170.8679 eV,   12.5584 Ry                                         
                                                                                
   TITEL  = PAW_PBE V 08Apr2002                                                 
   LULTRA =        F    use ultrasoft PP ?                                      
   IUNSCR =        1    unscreen: 0-lin 1-nonlin 2-no                           
   RPACOR =    2.000    partial core radius                                     
   POMASS =   50.941; ZVAL   =    5.000    mass and valenz                      
   RCORE  =    2.700    outmost cutoff radius                                   
   RWIGS  =    2.500; RWIGS  =    1.323    wigner-seitz radius (au A)           
   ENMAX  =  192.543; ENMIN  =  144.408 eV                                      
   RCLOC  =    1.779    cutoff for local pot                                    
   LCOR   =        T    correct aug charges                                     
   LPAW   =        T    paw PP                                                  
   EAUG   =  358.662                                                            
   DEXC   =    0.000                                                            
   RMAX   =    2.768    core radius for proj-oper                               
   RAUG   =    1.300    factor for augmentation sphere                          
   RDEP   =    2.762    radius for radial grids                                 
   RDEPT  =    2.240    core radius for aug-charge                              
                                                                                
   Atomic configuration                                                         
    9 entries                                                                   
     n  l   j            E        occ.                                          
     1  0  0.50     -5360.7193   2.0000                                         
     2  0  0.50      -598.4546   2.0000                                         
     2  1  1.50      -499.0155   6.0000                                         
     3  0  0.50       -66.5711   2.0000                                         
     3  1  1.50       -40.5282   6.0000                                         
     3  2  2.50        -2.4291   4.0000                                         
     4  0  0.50        -3.8743   1.0000                                         
     4  1  0.50        -2.7212   0.0000                                         
     4  3  2.50        -1.3606   0.0000                                         
   Description                                                                  
     l       E           TYP  RCUT    TYP  RCUT                                 
     2     -2.4290901     23  2.700                                             
     2     -3.7896727     23  2.700                                             
     0     -3.8742752     23  2.700                                             
     0     27.2116520     23  2.700                                             
     1     -2.7211652     23  2.700                                             
     1     27.2116520     23  2.700                                             
  local pseudopotential read in
  partial core-charges read in
  partial kinetic energy density read in
  atomic valenz-charges read in
  non local Contribution for L=           2  read in
    real space projection operators read in
  non local Contribution for L=           2  read in
    real space projection operators read in
  non local Contribution for L=           0  read in
    real space projection operators read in
  non local Contribution for L=           0  read in
    real space projection operators read in
  non local Contribution for L=           1  read in
    real space projection operators read in
  non local Contribution for L=           1  read in
    real space projection operators read in
    PAW grid and wavefunctions read in
 
   number of l-projection  operators is LMAX  =           6
   number of lm-projection operators is LMMAX =          18
 
 POTCAR:    PAW_PBE Fe 06Sep2000                  
   VRHFIN =Fe:  d7 s1                                                           
   LEXCH  = PE                                                                  
   EATOM  =   594.3153 eV,   43.6809 Ry                                         
                                                                                
   TITEL  = PAW_PBE Fe 06Sep2000                                                
   LULTRA =        F    use ultrasoft PP ?                                      
   IUNSCR =        1    unscreen: 0-lin 1-nonlin 2-no                           
   RPACOR =    2.000    partial core radius                                     
   POMASS =   55.847; ZVAL   =    8.000    mass and valenz                      
   RCORE  =    2.300    outmost cutoff radius                                   
   RWIGS  =    2.460; RWIGS  =    1.302    wigner-seitz radius (au A)           
   ENMAX  =  267.882; ENMIN  =  200.911 eV                                      
   RCLOC  =    1.701    cutoff for local pot                                    
   LCOR   =        T    correct aug charges                                     
   LPAW   =        T    paw PP                                                  
   EAUG   =  511.368                                                            
   DEXC   =    0.000                                                            
   RMAX   =    2.356    core radius for proj-oper                               
   RAUG   =    1.300    factor for augmentation sphere                          
   RDEP   =    2.442    radius for radial grids                                 
   RDEPT  =    1.890    core radius for aug-charge                              
                                                                                
   Atomic configuration                                                         
    9 entries                                                                   
     n  l   j            E        occ.                                          
     1  0  0.50     -6993.8440   2.0000                                         
     2  0  0.50      -814.6047   2.0000                                         
     2  1  1.50      -693.3689   6.0000                                         
     3  0  0.50       -89.4732   2.0000                                         
     3  1  1.50       -55.6373   6.0000                                         
     3  2  2.50        -3.8151   7.0000                                         
     4  0  0.50        -4.2551   1.0000                                         
     4  1  1.50        -3.4015   0.0000                                         
     4  3  2.50        -1.3606   0.0000                                         
   Description                                                                  
     l       E           TYP  RCUT    TYP  RCUT                                 
     2     -3.8151135     23  2.300                                             
     2     -5.1756961     23  2.300                                             
     0     -4.2550963     23  2.300                                             
     0      7.2035603     23  2.300                                             
     1     -2.7211652     23  2.300                                             
     1     18.4316424     23  2.300                                             
  local pseudopotential read in
  partial core-charges read in
  partial kinetic energy density read in
  atomic valenz-charges read in
  non local Contribution for L=           2  read in
    real space projection operators read in
  non local Contribution for L=           2  read in
    real space projection operators read in
  non local Contribution for L=           0  read in
    real space projection operators read in
  non local Contribution for L=           0  read in
    real space projection operators read in
  non local Contribution for L=           1  read in
    real space projection operators read in
  non local Contribution for L=           1  read in
    real space projection operators read in
    PAW grid and wavefunctions read in
 
   number of l-projection  operators is LMAX  =           6
   number of lm-projection operators is LMMAX =          18
 

 ----------------------------------------------------------------------------- 
|                                                                             |
|  ADVICE TO THIS USER RUNNING 'VASP/VAMP'   (HEAR YOUR MASTER'S VOICE ...):  |
|                                                                             |
|      You have a (more or less) 'large supercell' and for larger cells       |
|      it might be more efficient to use real space projection opertators     |
|      So try LREAL= Auto  in the INCAR   file.                               |
|      Mind:          For very  accurate calculation you might also keep the  |
|      reciprocal projection scheme          (i.e. LREAL=.FALSE.)             |
|                                                                             |
 ----------------------------------------------------------------------------- 

  PAW_PBE V 08Apr2002                   :
 energy of atom  1       EATOM= -170.8679
 kinetic energy error for atom=    0.0066 (will be added to EATOM!!)
  PAW_PBE Fe 06Sep2000                  :
 energy of atom  2       EATOM= -594.3153
 kinetic energy error for atom=    0.0346 (will be added to EATOM!!)
 
 
 POSCAR: EA0     6.364  9.725  4.257 90.03 89.99 
  positions in direct lattice
  No initial velocities read in
 exchange correlation table for  LEXCH =        8
   RHO(1)=    0.500       N(1)  =     2000
   RHO(2)=  100.500       N(2)  =     4000
 


--------------------------------------------------------------------------------------------------------


 ion  position               nearest neighbor table
   1  0.679  0.333  0.363-  10 2.31   6 2.48   3 2.52   8 2.53   4 2.55  10 2.59  15 2.63  14 2.85
                            17 2.87  15 2.88  18 2.96   5 2.98  14 3.09  17 3.11
   2  0.687  0.833  0.364-  11 2.37  19 2.50  18 2.50   5 2.57  12 2.62  11 2.64   7 2.65  12 2.85
                            13 2.86  16 2.90   8 2.96   6 2.96  13 3.07  16 3.11
   3  0.074  0.433  0.363-  14 2.32  18 2.47   1 2.52   4 2.54  20 2.58  14 2.61   6 2.64  15 2.81
                            20 2.84  17 2.85   8 2.95   7 2.96  15 3.06  17 3.10
   4  0.280  0.233  0.363-   9 2.32   5 2.48   8 2.52   3 2.54   1 2.55   9 2.59  17 2.60  14 2.85
                            17 2.86  10 2.87  19 2.96   6 2.98  14 3.09  10 3.10
   5  0.471  0.032  0.363-  16 2.36   4 2.48  19 2.52   2 2.57  16 2.61   8 2.64  10 2.65   9 2.80
                            10 2.89  12 2.91   7 2.96   1 2.98   9 3.02  12 3.12
   6  0.488  0.533  0.363-  17 2.34   1 2.48  18 2.52   7 2.57  11 2.57  17 2.63   3 2.64  11 2.82
                            15 2.83  20 2.88   2 2.96   4 2.98  15 3.07  20 3.11
   7  0.272  0.733  0.363-  20 2.35  18 2.50  19 2.50   6 2.57  16 2.60  20 2.62   2 2.65  13 2.79
                            16 2.83  11 2.85   3 2.96   5 2.96  13 3.01  11 3.08
   8  0.885  0.133  0.363-  12 2.34  19 2.47   4 2.52   1 2.53  12 2.60  14 2.60   5 2.64  14 2.85
                             9 2.87  10 2.87   3 2.95   2 2.96   9 3.08  10 3.09
   9  0.203  0.109  0.899-   4 2.32  16 2.52  14 2.53  10 2.54   4 2.59  12 2.59  19 2.64   5 2.80
                             8 2.87  19 2.87  17 2.92   5 3.02  13 3.03   8 3.08
  10  0.600  0.209  0.900-   1 2.31  14 2.51  12 2.52  17 2.53   9 2.54   1 2.59   5 2.65   8 2.87
                             4 2.87   5 2.89  15 2.96  16 3.04   8 3.09   4 3.10
  11  0.584  0.703  0.900-   2 2.37  16 2.48  20 2.51  15 2.52   6 2.57   2 2.64  13 2.64   6 2.82
                             7 2.85  18 2.90  17 2.92  12 3.02   7 3.08  18 3.12
  12  0.797  0.007  0.898-   8 2.34  10 2.52  13 2.56   9 2.59   8 2.60  16 2.61   2 2.62  19 2.84
                             2 2.85   5 2.91  14 2.95  11 3.02  19 3.05   5 3.12
  13  0.999  0.802  0.899-  19 2.36  20 2.48  16 2.50  12 2.56  18 2.59  19 2.62  11 2.64   7 2.79
                            18 2.83   2 2.86  15 2.90   7 3.01   9 3.03   2 3.07
  14  0.994  0.306  0.902-   3 2.32  15 2.51  10 2.51   9 2.53  17 2.53   8 2.60   3 2.61   1 2.85
                             8 2.85   4 2.85  20 2.92  12 2.95   1 3.09   4 3.09
  15  0.799  0.509  0.903-  18 2.31  20 2.50  14 2.51  11 2.52  18 2.60  17 2.61   1 2.63   3 2.81
                             6 2.83   1 2.88  13 2.90  10 2.96   3 3.06   6 3.07
  16  0.390  0.902  0.898-   5 2.36  11 2.48  13 2.50   9 2.52   7 2.60  12 2.61   5 2.61   7 2.83
                            19 2.86   2 2.90  20 2.96  10 3.04  19 3.08   2 3.11
  17  0.390  0.406  0.902-   6 2.34  20 2.47  10 2.53  14 2.53   4 2.60  15 2.61   6 2.63   3 2.85
                             4 2.86   1 2.87  11 2.92   9 2.92   3 3.10   1 3.11
  18  0.882  0.632  0.363-  15 2.31   3 2.47   7 2.50   2 2.50   6 2.52  13 2.59  15 2.60  13 2.83
                            20 2.84  11 2.90   1 2.96  19 2.97  20 3.07  11 3.12
  19  0.077  0.933  0.364-  13 2.36   8 2.47   2 2.50   7 2.50   5 2.52  13 2.62   9 2.64  12 2.84
                            16 2.86   9 2.87   4 2.96  18 2.97  12 3.05  16 3.08
  20  0.192  0.602  0.901-   7 2.35  17 2.47  13 2.48  15 2.50  11 2.51   3 2.58   7 2.62   3 2.84
                            18 2.84   6 2.88  14 2.92  16 2.96  18 3.07   6 3.11
 
  LATTYP: Found a triclinic cell.
 ALAT       =    15.1552610136
 B/A-ratio  =     0.4199240775
 C/A-ratio  =     0.2808922619
 COS(alpha) =     0.0000996008
 COS(beta)  =     0.2806511023
 COS(gamma) =     0.7232786681
  
  Lattice vectors:
  
 A1 = ( -10.9614770000,  -9.5606460000,  -4.2569950000)
 A2 = (  -6.3640590000,   0.0000000000,   0.0000000000)
 A3 = (  -0.0004240000,   0.0021130000,  -4.2569950000)


Analysis of symmetry for initial positions (statically):
=====================================================================
 Subroutine PRICEL returns:
 Original cell was already a primitive cell.
 

 Routine SETGRP: Setting up the symmetry group for a 
 triclinic supercell.


 Subroutine GETGRP returns: Found  1 space group operations
 (whereof  1 operations were pure point group operations)
 out of a pool of  2 trial point group operations.


The static configuration has the point symmetry C_1 .


Analysis of symmetry for dynamics (positions and initial velocities):
=====================================================================
 Subroutine PRICEL returns:
 Original cell was already a primitive cell.
 

 Routine SETGRP: Setting up the symmetry group for a 
 triclinic supercell.


 Subroutine GETGRP returns: Found  1 space group operations
 (whereof  1 operations were pure point group operations)
 out of a pool of  2 trial point group operations.


The dynamic configuration has the point symmetry C_1 .


 Subroutine INISYM returns: Found  1 space group operations
 (whereof  1 operations are pure point group operations),
 and found     1 'primitive' translations

 
 
 KPOINTS: EA                                      

Automatic generation of k-mesh.
Space group operators:
 irot       det(A)        alpha          n_x          n_y          n_z        tau_x        tau_y        tau_z
    1     1.000000     0.000000     1.000000     0.000000     0.000000     0.000000     0.000000     0.000000
 
 Subroutine IBZKPT returns following result:
 ===========================================
 
 Found      8 irreducible k-points:
 
 Following reciprocal coordinates:
            Coordinates               Weight
  0.000000  0.000000  0.000000      1.000000
  0.500000 -0.000000 -0.000000      1.000000
  0.000000  0.500000 -0.000000      1.000000
  0.500000  0.500000 -0.000000      1.000000
  0.000000  0.000000  0.333333      2.000000
  0.500000 -0.000000  0.333333      2.000000
  0.000000  0.500000  0.333333      2.000000
  0.500000  0.500000  0.333333      2.000000
 
 Following cartesian coordinates:
            Coordinates               Weight
  0.000000  0.000000  0.000000      1.000000
  0.078566  0.014518 -0.000001      1.000000
  0.000000  0.052286  0.000026      1.000000
  0.078566  0.066804  0.000025      1.000000
  0.000000  0.000000  0.078302      2.000000
  0.078566  0.014518  0.078302      2.000000
  0.000000  0.052286  0.078328      2.000000
  0.078566  0.066804  0.078328      2.000000
 


--------------------------------------------------------------------------------------------------------




 Dimension of arrays:
   k-points           NKPTS =      8   k-points in BZ     NKDIM =      8   number of bands    NBANDS=     68
   number of dos      NEDOS =    301   number of ions     NIONS =     20
   non local maximal  LDIM  =      6   non local SUM 2l+1 LMDIM =     18
   total plane-waves  NPLWV =  20160
   max r-space proj   IRMAX =      1   max aug-charges    IRDMAX=   4918
   dimension x,y,z NGX =    28 NGY =   40 NGZ =   18
   dimension x,y,z NGXF=    56 NGYF=   80 NGZF=   36
   support grid    NGXF=    56 NGYF=   80 NGZF=   36
   ions per type =              17   3
   NGX,Y,Z   is equivalent  to a cutoff of   7.31,  6.84,  7.03 a.u.
   NGXF,Y,Z  is equivalent  to a cutoff of  14.63, 13.68, 14.06 a.u.

 SYSTEM =  unknown system                          
 POSCAR =  EA0     6.364  9.725  4.257 90.03 89.99 

 Startparameter for this run:
   NWRITE =      2    write-flag & timer
   PREC   = normal    normal or accurate (medium, high low for compatibility)
   ISTART =      0    job   : 0-new  1-cont  2-samecut
   ICHARG =      2    charge: 1-file 2-atom 10-const
   ISPIN  =      1    spin polarized calculation?
   LNONCOLLINEAR =      F non collinear calculations
   LSORBIT =      F    spin-orbit coupling
   INIWAV =      1    electr: 0-lowe 1-rand  2-diag
   LASPH  =      F    aspherical Exc in radial PAW
   METAGGA=      F    non-selfconsistent MetaGGA calc.

 Electronic Relaxation 1
   ENCUT  =  267.9 eV  19.69 Ry    4.44 a.u.   8.49 12.98  5.68*2*pi/ulx,y,z
   ENINI  =  267.9     initial cutoff
   ENAUG  =  511.4 eV  augmentation charge cutoff
   NELM   =     60;   NELMIN=  2; NELMDL= -5     # of ELM steps 
   EDIFF  = 0.1E-04   stopping-criterion for ELM
   LREAL  =      F    real-space projection
   NLSPLINE    = F    spline interpolate recip. space projectors
   LCOMPAT=      F    compatible to vasp.4.4
   GGA_COMPAT  = T    GGA compatible to vasp.4.4-vasp.4.6
   LMAXPAW     = -100 max onsite density
   LMAXMIX     =    2 max onsite mixed and CHGCAR
   VOSKOWN=      0    Vosko Wilk Nusair interpolation
   ROPT   =    0.00000   0.00000
 Ionic relaxation
   EDIFFG = -.1E-01   stopping-criterion for IOM
   NSW    =    500    number of steps for IOM
   NBLOCK =      1;   KBLOCK =    500    inner block; outer block 
   IBRION =      2    ionic relax: 0-MD 1-quasi-New 2-CG
   NFREE  =      1    steps in history (QN), initial steepest desc. (CG)
   ISIF   =      3    stress and relaxation
   IWAVPR =     11    prediction:  0-non 1-charg 2-wave 3-comb
   ISYM   =      2    0-nonsym 1-usesym 2-fastsym
   LCORR  =      T    Harris-Foulkes like correction to forces

   POTIM  = 0.5000    time-step for ionic-motion
   TEIN   =    0.0    initial temperature
   TEBEG  =    0.0;   TEEND  =   0.0 temperature during run
   SMASS  =  -3.00    Nose mass-parameter (am)
   estimated Nose-frequenzy (Omega)   =  0.10E-29 period in steps =****** mass=  -0.926E-27a.u.
   SCALEE = 1.0000    scale energy and forces
   NPACO  =    256;   APACO  = 16.0  distance and # of slots for P.C.
   PSTRESS=    0.0 pullay stress

  Mass of Ions in am
   POMASS =  50.94 55.85
  Ionic Valenz
   ZVAL   =   5.00  8.00
  Atomic Wigner-Seitz radii
   RWIGS  =  -1.00 -1.00
  virtual crystal weights 
   VCA    =   1.00  1.00
   NELECT =     109.0000    total number of electrons
   NUPDOWN=      -1.0000    fix difference up-down

 DOS related values:
   EMIN   =  10.00;   EMAX   =-10.00  energy-range for DOS
   EFERMI =   0.00
   ISMEAR =     0;   SIGMA  =   0.10  broadening in eV -4-tet -1-fermi 0-gaus

 Electronic relaxation 2 (details)
   IALGO  =     38    algorithm
   LDIAG  =      T    sub-space diagonalisation (order eigenvalues)
   LSUBROT=      F    optimize rotation matrix (better conditioning)
   TURBO    =      0    0=normal 1=particle mesh
   IRESTART =      0    0=no restart 2=restart with 2 vectors
   NREBOOT  =      0    no. of reboots
   NMIN     =      0    reboot dimension
   EREF     =   0.00    reference energy to select bands
   IMIX   =      4    mixing-type and parameters
     AMIX     =   0.40;   BMIX     =  1.00
     AMIX_MAG =   1.60;   BMIX_MAG =  1.00
     AMIN     =   0.10
     WC   =   100.;   INIMIX=   1;  MIXPRE=   1;  MAXMIX= -45

 Intra band minimization:
   WEIMIN = 0.0010     energy-eigenvalue tresh-hold
   EBREAK =  0.37E-07  absolut break condition
   DEPER  =   0.30     relativ break condition  

   TIME   =   0.40     timestep for ELM

  volume/ion in A,a.u.               =      12.95        87.42
  Fermi-wavevector in a.u.,A,eV,Ry     =   1.226714  2.318154 20.474433  1.504828
  Thomas-Fermi vector in A             =   2.361705
 
 Write flags
   LWAVE        =      F    write WAVECAR
   LDOWNSAMPLE  =      F    k-point downsampling of WAVECAR
   LCHARG       =      F    write CHGCAR
   LVTOT        =      F    write LOCPOT, total local potential
   LVHAR        =      F    write LOCPOT, Hartree potential only
   LELF         =      F    write electronic localiz. function (ELF)
   LORBIT       =      0    0 simple, 1 ext, 2 COOP (PROOUT), +10 PAW based schemes


 Dipole corrections
   LMONO  =      F    monopole corrections only (constant potential shift)
   LDIPOL =      F    correct potential (dipole corrections)
   IDIPOL =      0    1-x, 2-y, 3-z, 4-all directions 
   EPSILON=  1.0000000 bulk dielectric constant

 Exchange correlation treatment:
   GGA     =    --    GGA type
   LEXCH   =     8    internal setting for exchange type
   VOSKOWN=      0    Vosko Wilk Nusair interpolation
   LHFCALC =     F    Hartree Fock is set to
   LHFONE  =     F    Hartree Fock one center treatment
   AEXX    =    0.0000 exact exchange contribution

 Linear response parameters
   LEPSILON=     F    determine dielectric tensor
   LRPA    =     F    only Hartree local field effects (RPA)
   LNABLA  =     F    use nabla operator in PAW spheres
   LVEL    =     F    velocity operator in full k-point grid
   LINTERFAST=   F  fast interpolation
   KINTER  =     0    interpolate to denser k-point grid
   CSHIFT  =0.1000    complex shift for real part using Kramers Kronig
   OMEGAMAX=  -1.0    maximum frequency
   DEG_THRESHOLD= 0.2000000E-02 threshold for treating states as degnerate
   RTIME   =   -0.100 relaxation time in fs
  (WPLASMAI=    0.000 imaginary part of plasma frequency in eV, 0.658/RTIME)
   DFIELD  = 0.0000000 0.0000000 0.0000000 field for delta impulse in time
 
 Orbital magnetization related:
   ORBITALMAG=     F  switch on orbital magnetization
   LCHIMAG   =     F  perturbation theory with respect to B field
   DQ        =  0.001000  dq finite difference perturbation B field
   LLRAUG    =     F  two centre corrections for induced B field



--------------------------------------------------------------------------------------------------------


 conjugate gradient relaxation of ions
 charge density and potential will be updated during run
 non-spin polarized calculation
 Variant of blocked Davidson
 Davidson routine will perform the subspace rotation
 perform sub-space diagonalisation
    after iterative eigenvector-optimisation
 modified Broyden-mixing scheme, WC =      100.0
 initial mixing is a Kerker type mixing with AMIX =  0.4000 and BMIX =      1.0000
 Hartree-type preconditioning will be used
 using additional bands           13
 reciprocal scheme for non local part
 use partial core corrections
 calculate Harris-corrections to forces 
   (improved forces if not selfconsistent)
 use gradient corrections 
 use of overlap-Matrix (Vanderbilt PP)
 Gauss-broadening in eV      SIGMA  =   0.10


--------------------------------------------------------------------------------------------------------


  energy-cutoff  :      267.88
  volume of cell :      259.07
      direct lattice vectors                 reciprocal lattice vectors
     6.364059000  0.000000000  0.000000000     0.157132421  0.029035888 -0.000001238
    -1.767065000  9.562759000  0.000000000     0.000000000  0.104572331  0.000051905
     0.000424000 -0.002113000  4.256995000     0.000000000  0.000000000  0.234907488

  length of vectors
     6.364059000  9.724653125  4.256995546     0.159792618  0.104572344  0.234907488


 
 k-points in units of 2pi/SCALE and weight: EA                                      
   0.00000000  0.00000000  0.00000000       0.083
   0.07856621  0.01451794 -0.00000062       0.083
   0.00000000  0.05228617  0.00002595       0.083
   0.07856621  0.06680411  0.00002533       0.083
   0.00000000  0.00000000  0.07830250       0.167
   0.07856621  0.01451794  0.07830188       0.167
   0.00000000  0.05228617  0.07832845       0.167
   0.07856621  0.06680411  0.07832783       0.167
 
 k-points in reciprocal lattice and weights: EA                                      
   0.00000000  0.00000000  0.00000000       0.083
   0.50000000 -0.00000000 -0.00000000       0.083
   0.00000000  0.50000000 -0.00000000       0.083
   0.50000000  0.50000000 -0.00000000       0.083
   0.00000000  0.00000000  0.33333333       0.167
   0.50000000 -0.00000000  0.33333333       0.167
   0.00000000  0.50000000  0.33333333       0.167
   0.50000000  0.50000000  0.33333333       0.167
 
 position of ions in fractional coordinates (direct lattice) 
   0.67923800  0.33273700  0.36303300
   0.68703600  0.83318300  0.36352500
   0.07398800  0.43305200  0.36284800
   0.27976300  0.23297700  0.36283900
   0.47119300  0.03218100  0.36331700
   0.48758500  0.53344000  0.36305400
   0.27168400  0.73253900  0.36343600
   0.88486800  0.13280200  0.36347100
   0.20251800  0.10875900  0.89904400
   0.59968900  0.20922600  0.90030800
   0.58396400  0.70282700  0.90030900
   0.79735000  0.00696600  0.89826500
   0.99897200  0.80162800  0.89906500
   0.99374800  0.30632900  0.90171500
   0.79934900  0.50906200  0.90267800
   0.39006100  0.90188500  0.89846200
   0.39011900  0.40637900  0.90234800
   0.88170700  0.63216300  0.36323700
   0.07689400  0.93349600  0.36352100
   0.19211400  0.60197800  0.90119400
 
 position of ions in cartesian coordinates  (Angst):
   3.73489673  3.18111665  1.54542967
   2.90020326  7.96676010  1.54752411
  -0.29421319  4.14040521  1.54464212
   1.36889658  2.22713622  1.54460381
   2.94198818  0.30697146  1.54663865
   2.16055049  5.10039103  1.54551906
   0.43472307  7.00432597  1.54714523
   5.39683650  1.26918551  1.54729423
   1.09703347  1.03813643  3.82722581
   3.44712197  1.99887546  3.83260665
   2.47482209  6.71906287  3.83261091
   5.06245393  0.06471615  3.82390961
   4.94136917  7.66387565  3.82731521
   5.78334998  2.92744508  3.83859625
   4.18794129  4.86612986  3.84269573
   0.88906275  8.62261045  3.82474824
   1.76502482  3.88419778  3.84129092
   4.49431627  6.04445490  1.54629809
  -1.16003602  8.92602916  1.54750708
   0.15927268  5.75466631  3.83637835
 


--------------------------------------------------------------------------------------------------------


 k-point  1 :   0.0000 0.0000 0.0000  plane waves:    2575
 k-point  2 :   0.5000-0.0000-0.0000  plane waves:    2588
 k-point  3 :   0.0000 0.5000-0.0000  plane waves:    2596
 k-point  4 :   0.5000 0.5000-0.0000  plane waves:    2576
 k-point  5 :   0.0000 0.0000 0.3333  plane waves:    2575
 k-point  6 :   0.5000-0.0000 0.3333  plane waves:    2556
 k-point  7 :   0.0000 0.5000 0.3333  plane waves:    2573
 k-point  8 :   0.5000 0.5000 0.3333  plane waves:    2559

 maximum and minimum number of plane-waves per node :      2596     2556

 maximum number of plane-waves:      2596
 maximum index in each direction: 
   IXMAX=    8   IYMAX=   12   IZMAX=    5
   IXMIN=   -8   IYMIN=  -13   IZMIN=   -6


 serial   3D FFT for wavefunctions
 parallel 3D FFT for charge:
    minimum data exchange during FFTs selected (reduces bandwidth)


 total amount of memory used by VASP MPI-rank0    48240. kBytes
=======================================================================

   base      :      30000. kBytes
   nonl-proj :       6811. kBytes
   fftplans  :       1515. kBytes
   grid      :       3171. kBytes
   one-center:        311. kBytes
   wavefun   :       6432. kBytes
 
     INWAV:  cpu time    0.0000: real time    0.0000
 Broyden mixing: mesh for mixing (old mesh)
   NGX = 17   NGY = 25   NGZ = 11
  (NGX  = 56   NGY  = 80   NGZ  = 36)
  gives a total of   4675 points

 initial charge density was supplied:
 charge density of overlapping atoms calculated
 number of electron     109.0000000 magnetization 
 keeping initial charge density in first step


--------------------------------------------------------------------------------------------------------


 Maximum index for augmentation-charges         1165 (set IRDMAX)


--------------------------------------------------------------------------------------------------------


 First call to EWALD:  gamma=   0.278
 Maximum number of real-space cells 3x 2x 4
 Maximum number of reciprocal cells 3x 4x 2

    FEWALD:  cpu time    0.0028: real time    0.0028


--------------------------------------- Iteration      1(   1)  ---------------------------------------


    POTLOK:  cpu time    0.0398: real time    0.0398
    SETDIJ:  cpu time    0.0162: real time    0.0297
     EDDAV:  cpu time    1.6436: real time    2.0233
       DOS:  cpu time    0.0011: real time    0.0011
    --------------------------------------------
      LOOP:  cpu time    1.7007: real time    2.0940

 eigenvalue-minimisations  :  1088
 total energy-change (2. order) : 0.6265803E+03  (-0.2269055E+04)
 number of electron     109.0000000 magnetization 
 augmentation part      109.0000000 magnetization 

 Free energy of the ion-electron system (eV)
  ---------------------------------------------------
  alpha Z        PSCENC =       552.45265673
  Ewald energy   TEWEN  =     -5263.49850562
  -Hartree energ DENC   =      -837.16304317
  -exchange      EXHF   =         0.00000000
  -V(xc)+E(xc)   XCENC  =      -770.71889824
  PAW double counting   =      5171.05454107    -4356.08836938
  entropy T*S    EENTRO =        -0.06005754
  eigenvalues    EBANDS =      1443.11776616
  atomic energy  EATOM  =      4687.48422623
  Solvation  Ediel_sol  =         0.00000000
  ---------------------------------------------------
  free energy    TOTEN  =       626.58031625 eV

  energy without entropy =      626.64037379  energy(sigma->0) =      626.61034502


--------------------------------------------------------------------------------------------------------




--------------------------------------- Iteration      1(   2)  ---------------------------------------


     EDDAV:  cpu time    1.6573: real time    1.6599
       DOS:  cpu time    0.0013: real time    0.0014
    --------------------------------------------
      LOOP:  cpu time    1.6587: real time    1.6613

 eigenvalue-minimisations  :  1088
 total energy-change (2. order) :-0.7015094E+03  (-0.6788562E+03)
 number of electron     109.0000000 magnetization 
 augmentation part      109.0000000 magnetization 

 Free energy of the ion-electron system (eV)
  ---------------------------------------------------
  alpha Z        PSCENC =       552.45265673
  Ewald energy   TEWEN  =     -5263.49850562
  -Hartree energ DENC   =      -837.16304317
  -exchange      EXHF   =         0.00000000
  -V(xc)+E(xc)   XCENC  =      -770.71889824
  PAW double counting   =      5171.05454107    -4356.08836938
  entropy T*S    EENTRO =        -0.06103982
  eigenvalues    EBANDS =       741.60932068
  atomic energy  EATOM  =      4687.48422623
  Solvation  Ediel_sol  =         0.00000000
  ---------------------------------------------------
  free energy    TOTEN  =       -74.92911152 eV

  energy without entropy =      -74.86807169  energy(sigma->0) =      -74.89859161


--------------------------------------------------------------------------------------------------------




--------------------------------------- Iteration      1(   3)  ---------------------------------------


     EDDAV:  cpu time    2.6209: real time    3.1611
       DOS:  cpu time    0.0014: real time    0.0014
    --------------------------------------------
      LOOP:  cpu time    2.6222: real time    3.1625

 eigenvalue-minimisations  :  1828
 total energy-change (2. order) :-0.1187291E+03  (-0.1117992E+03)
 number of electron     109.0000000 magnetization 
 augmentation part      109.0000000 magnetization 

 Free energy of the ion-electron system (eV)
  ---------------------------------------------------
  alpha Z        PSCENC =       552.45265673
  Ewald energy   TEWEN  =     -5263.49850562
  -Hartree energ DENC   =      -837.16304317
  -exchange      EXHF   =         0.00000000
  -V(xc)+E(xc)   XCENC  =      -770.71889824
  PAW double counting   =      5171.05454107    -4356.08836938
  entropy T*S    EENTRO =        -0.08240115
  eigenvalues    EBANDS =       622.90155367
  atomic energy  EATOM  =      4687.48422623
  Solvation  Ediel_sol  =         0.00000000
  ---------------------------------------------------
  free energy    TOTEN  =      -193.65823985 eV

  energy without entropy =     -193.57583870  energy(sigma->0) =     -193.61703927


--------------------------------------------------------------------------------------------------------




--------------------------------------- Iteration      1(   4)  ---------------------------------------


     EDDAV:  cpu time    1.9915: real time    1.9950
       DOS:  cpu time    0.0012: real time    0.0012
    --------------------------------------------
      LOOP:  cpu time    1.9927: real time    1.9962

 eigenvalue-minimisations  :  1752
 total energy-change (2. order) :-0.1151137E+02  (-0.1083983E+02)
 number of electron     109.0000000 magnetization 
 augmentation part      109.0000000 magnetization 

 Free energy of the ion-electron system (eV)
  ---------------------------------------------------
  alpha Z        PSCENC =       552.45265673
  Ewald energy   TEWEN  =     -5263.49850562
  -Hartree energ DENC   =      -837.16304317
  -exchange      EXHF   =         0.00000000
  -V(xc)+E(xc)   XCENC  =      -770.71889824
  PAW double counting   =      5171.05454107    -4356.08836938
  entropy T*S    EENTRO =        -0.10760780
  eigenvalues    EBANDS =       611.41539237
  atomic energy  EATOM  =      4687.48422623
  Solvation  Ediel_sol  =         0.00000000
  ---------------------------------------------------
  free energy    TOTEN  =      -205.16960780 eV

  energy without entropy =     -205.06200000  energy(sigma->0) =     -205.11580390


--------------------------------------------------------------------------------------------------------




--------------------------------------- Iteration      1(   5)  ---------------------------------------


     EDDAV:  cpu time    2.2656: real time    2.3436
       DOS:  cpu time    0.0014: real time    0.0014
    CHARGE:  cpu time    0.0517: real time    0.0518
    MIXING:  cpu time    0.0015: real time    0.0015
    --------------------------------------------
      LOOP:  cpu time    2.3202: real time    2.3983

 eigenvalue-minimisations  :  1760
 total energy-change (2. order) :-0.6027952E+00  (-0.5907099E+00)
 number of electron     108.9999923 magnetization 
 augmentation part       33.8848947 magnetization 

 Broyden mixing:
  rms(total) = 0.56571E+01    rms(broyden)= 0.56552E+01
  rms(prec ) = 0.67862E+01
  weight for this iteration     100.00

 Free energy of the ion-electron system (eV)
  ---------------------------------------------------
  alpha Z        PSCENC =       552.45265673
  Ewald energy   TEWEN  =     -5263.49850562
  -Hartree energ DENC   =      -837.16304317
  -exchange      EXHF   =         0.00000000
  -V(xc)+E(xc)   XCENC  =      -770.71889824
  PAW double counting   =      5171.05454107    -4356.08836938
  entropy T*S    EENTRO =        -0.11128649
  eigenvalues    EBANDS =       610.81627590
  atomic energy  EATOM  =      4687.48422623
  Solvation  Ediel_sol  =         0.00000000
  ---------------------------------------------------
  free energy    TOTEN  =      -205.77240296 eV

  energy without entropy =     -205.66111648  energy(sigma->0) =     -205.71675972


--------------------------------------------------------------------------------------------------------




--------------------------------------- Iteration      1(   6)  ---------------------------------------


    POTLOK:  cpu time    0.0314: real time    0.0315
    SETDIJ:  cpu time    0.0168: real time    0.0168
     EDDAV:  cpu time    2.2440: real time    2.3477
       DOS:  cpu time    0.0013: real time    0.0013
    CHARGE:  cpu time    0.0541: real time    0.0542
    MIXING:  cpu time    0.0016: real time    0.0016
    --------------------------------------------
      LOOP:  cpu time    2.3493: real time    2.4531

 eigenvalue-minimisations  :  2096
 total energy-change (2. order) :-0.3104443E+02  (-0.4937366E+02)
 number of electron     108.9999831 magnetization 
 augmentation part       46.8525931 magnetization 

 Broyden mixing:
  rms(total) = 0.79411E+01    rms(broyden)= 0.79397E+01
  rms(prec ) = 0.13820E+02
  weight for this iteration     100.00

 eigenvalues of (default mixing * dielectric matrix)
  average eigenvalue GAMMA=   0.3685
  0.3685

 Free energy of the ion-electron system (eV)
  ---------------------------------------------------
  alpha Z        PSCENC =       552.45265673
  Ewald energy   TEWEN  =     -5263.49850562
  -Hartree energ DENC   =      -641.50222942
  -exchange      EXHF   =         0.00000000
  -V(xc)+E(xc)   XCENC  =      -773.05420522
  PAW double counting   =      6321.17689528    -5489.35325767
  entropy T*S    EENTRO =        -0.11713513
  eigenvalues    EBANDS =       369.59471924
  atomic energy  EATOM  =      4687.48422623
  Solvation  Ediel_sol  =         0.00000000
  ---------------------------------------------------
  free energy    TOTEN  =      -236.81683558 eV

  energy without entropy =     -236.69970046  energy(sigma->0) =     -236.75826802


--------------------------------------------------------------------------------------------------------




--------------------------------------- Iteration      1(   7)  ---------------------------------------


    POTLOK:  cpu time    0.0295: real time    0.0297
    SETDIJ:  cpu time    0.0166: real time    0.0166
     EDDAV:  cpu time    2.6330: real time    3.2177
       DOS:  cpu time    0.0016: real time    0.0016
    CHARGE:  cpu time    0.0508: real time    0.0509
    MIXING:  cpu time    0.0016: real time    0.0016
    --------------------------------------------
      LOOP:  cpu time    2.7331: real time    3.3182

 eigenvalue-minimisations  :  2136
 total energy-change (2. order) : 0.5263502E+02  (-0.4867386E+02)
 number of electron     108.9999915 magnetization 
 augmentation part       43.0969827 magnetization 

 Broyden mixing:
  rms(total) = 0.23248E+01    rms(broyden)= 0.23206E+01
  rms(prec ) = 0.53259E+01
  weight for this iteration     100.00

 eigenvalues of (default mixing * dielectric matrix)
  average eigenvalue GAMMA=   0.5548
  0.8881  0.2215

 Free energy of the ion-electron system (eV)
  ---------------------------------------------------
  alpha Z        PSCENC =       552.45265673
  Ewald energy   TEWEN  =     -5263.49850562
  -Hartree energ DENC   =      -706.16647185
  -exchange      EXHF   =         0.00000000
  -V(xc)+E(xc)   XCENC  =      -770.16897958
  PAW double counting   =      6648.54098779    -5830.25933071
  entropy T*S    EENTRO =        -0.09180011
  eigenvalues    EBANDS =       497.52540531
  atomic energy  EATOM  =      4687.48422623
  Solvation  Ediel_sol  =         0.00000000
  ---------------------------------------------------
  free energy    TOTEN  =      -184.18181182 eV

  energy without entropy =     -184.09001171  energy(sigma->0) =     -184.13591176


--------------------------------------------------------------------------------------------------------




--------------------------------------- Iteration      1(   8)  ---------------------------------------


    POTLOK:  cpu time    0.0306: real time    0.0308
    SETDIJ:  cpu time    0.0170: real time    0.0171
     EDDAV:  cpu time    2.4416: real time    2.9530
       DOS:  cpu time    0.0015: real time    0.0015
    CHARGE:  cpu time    0.0552: real time    0.0553
    MIXING:  cpu time    0.0020: real time    0.0020
    --------------------------------------------
      LOOP:  cpu time    2.5479: real time    3.0596

 eigenvalue-minimisations  :  2096
 total energy-change (2. order) :-0.1099924E+02  (-0.2165825E+02)
 number of electron     108.9999926 magnetization 
 augmentation part       42.5012066 magnetization 

 Broyden mixing:
  rms(total) = 0.48884E+01    rms(broyden)= 0.48878E+01
  rms(prec ) = 0.79454E+01
  weight for this iteration     100.00

 eigenvalues of (default mixing * dielectric matrix)
  average eigenvalue GAMMA=   0.4538
  0.9798  0.2197  0.1620

 Free energy of the ion-electron system (eV)
  ---------------------------------------------------
  alpha Z        PSCENC =       552.45265673
  Ewald energy   TEWEN  =     -5263.49850562
  -Hartree energ DENC   =      -716.86046044
  -exchange      EXHF   =         0.00000000
  -V(xc)+E(xc)   XCENC  =      -768.72621741
  PAW double counting   =      7059.12130244    -6251.90079142
  entropy T*S    EENTRO =        -0.09503761
  eigenvalues    EBANDS =       506.84178030
  atomic energy  EATOM  =      4687.48422623
  Solvation  Ediel_sol  =         0.00000000
  ---------------------------------------------------
  free energy    TOTEN  =      -195.18104682 eV

  energy without entropy =     -195.08600921  energy(sigma->0) =     -195.13352801


--------------------------------------------------------------------------------------------------------




--------------------------------------- Iteration      1(   9)  ---------------------------------------


    POTLOK:  cpu time    0.0331: real time    0.0332
    SETDIJ:  cpu time    0.0180: real time    0.0181
     EDDAV:  cpu time    2.4049: real time    2.4082
       DOS:  cpu time    0.0015: real time    0.0015
    CHARGE:  cpu time    0.0530: real time    0.0531
    MIXING:  cpu time    0.0021: real time    0.0021
    --------------------------------------------
      LOOP:  cpu time    2.5126: real time    2.5161

 eigenvalue-minimisations  :  2168
 total energy-change (2. order) : 0.1690480E+02  (-0.1711452E+02)
 number of electron     108.9999891 magnetization 
 augmentation part       42.9197081 magnetization 

 Broyden mixing:
  rms(total) = 0.16289E+01    rms(broyden)= 0.16278E+01
  rms(prec ) = 0.23971E+01
  weight for this iteration     100.00

 eigenvalues of (default mixing * dielectric matrix)
  average eigenvalue GAMMA=   0.4235
  0.9781  0.3781  0.1802  0.1576

 Free energy of the ion-electron system (eV)
  ---------------------------------------------------
  alpha Z        PSCENC =       552.45265673
  Ewald energy   TEWEN  =     -5263.49850562
  -Hartree energ DENC   =      -683.31798977
  -exchange      EXHF   =         0.00000000
  -V(xc)+E(xc)   XCENC  =      -770.17520085
  PAW double counting   =      7165.05291027    -6356.94475253
  entropy T*S    EENTRO =        -0.12034032
  eigenvalues    EBANDS =       490.79074553
  atomic energy  EATOM  =      4687.48422623
  Solvation  Ediel_sol  =         0.00000000
  ---------------------------------------------------
  free energy    TOTEN  =      -178.27625033 eV

  energy without entropy =     -178.15591000  energy(sigma->0) =     -178.21608017


--------------------------------------------------------------------------------------------------------




--------------------------------------- Iteration      1(  10)  ---------------------------------------


    POTLOK:  cpu time    0.0322: real time    0.0324
    SETDIJ:  cpu time    0.0184: real time    0.0184
     EDDAV:  cpu time    2.2743: real time    2.4896
       DOS:  cpu time    0.0017: real time    0.0017
    CHARGE:  cpu time    0.0528: real time    0.0529
    MIXING:  cpu time    0.0023: real time    0.0023
    --------------------------------------------
      LOOP:  cpu time    2.3817: real time    2.5972

 eigenvalue-minimisations  :  1872
 total energy-change (2. order) : 0.3776282E+00  (-0.2037831E+01)
 number of electron     108.9999898 magnetization 
 augmentation part       42.5165916 magnetization 

 Broyden mixing:
  rms(total) = 0.10947E+01    rms(broyden)= 0.10946E+01
  rms(prec ) = 0.15927E+01
  weight for this iteration     100.00

 eigenvalues of (default mixing * dielectric matrix)
  average eigenvalue GAMMA=   0.3998
  0.9944  0.3923  0.2744  0.1690  0.1690

 Free energy of the ion-electron system (eV)
  ---------------------------------------------------
  alpha Z        PSCENC =       552.45265673
  Ewald energy   TEWEN  =     -5263.49850562
  -Hartree energ DENC   =      -685.13504498
  -exchange      EXHF   =         0.00000000
  -V(xc)+E(xc)   XCENC  =      -769.80427192
  PAW double counting   =      7236.88448281    -6429.99843854
  entropy T*S    EENTRO =        -0.13728986
  eigenvalues    EBANDS =       493.85356302
  atomic energy  EATOM  =      4687.48422623
  Solvation  Ediel_sol  =         0.00000000
  ---------------------------------------------------
  free energy    TOTEN  =      -177.89862214 eV

  energy without entropy =     -177.76133228  energy(sigma->0) =     -177.82997721


--------------------------------------------------------------------------------------------------------




--------------------------------------- Iteration      1(  11)  ---------------------------------------


    POTLOK:  cpu time    0.0313: real time    0.0315
    SETDIJ:  cpu time    0.0181: real time    0.0181
     EDDAV:  cpu time    2.0251: real time    2.0316
       DOS:  cpu time    0.0016: real time    0.0016
    CHARGE:  cpu time    0.0525: real time    0.0525
    MIXING:  cpu time    0.0019: real time    0.0019
    --------------------------------------------
      LOOP:  cpu time    2.1304: real time    2.1373

 eigenvalue-minimisations  :  1736
 total energy-change (2. order) : 0.3500048E+00  (-0.3766942E+00)
 number of electron     108.9999896 magnetization 
 augmentation part       42.6295574 magnetization 

 Broyden mixing:
  rms(total) = 0.92422E+00    rms(broyden)= 0.92415E+00
  rms(prec ) = 0.12876E+01
  weight for this iteration     100.00

 eigenvalues of (default mixing * dielectric matrix)
  average eigenvalue GAMMA=   0.4807
  1.0142  0.6630  0.6630  0.1620  0.1908  0.1908

 Free energy of the ion-electron system (eV)
  ---------------------------------------------------
  alpha Z        PSCENC =       552.45265673
  Ewald energy   TEWEN  =     -5263.49850562
  -Hartree energ DENC   =      -681.81671358
  -exchange      EXHF   =         0.00000000
  -V(xc)+E(xc)   XCENC  =      -769.69808344
  PAW double counting   =      7310.98712019    -6504.54441537
  entropy T*S    EENTRO =        -0.12766091
  eigenvalues    EBANDS =       491.21275842
  atomic energy  EATOM  =      4687.48422623
  Solvation  Ediel_sol  =         0.00000000
  ---------------------------------------------------
  free energy    TOTEN  =      -177.54861736 eV

  energy without entropy =     -177.42095644  energy(sigma->0) =     -177.48478690


--------------------------------------------------------------------------------------------------------




--------------------------------------- Iteration      1(  12)  ---------------------------------------


    POTLOK:  cpu time    0.0308: real time    0.0311
    SETDIJ:  cpu time    0.0172: real time    0.0172
     EDDAV:  cpu time    2.0599: real time    2.6198
       DOS:  cpu time    0.0015: real time    0.0015
    CHARGE:  cpu time    0.0537: real time    0.0538
    MIXING:  cpu time    0.0018: real time    0.0018
    --------------------------------------------
      LOOP:  cpu time    2.1651: real time    2.7254

 eigenvalue-minimisations  :  1728
 total energy-change (2. order) : 0.1080886E+00  (-0.1613247E+00)
 number of electron     108.9999895 magnetization 
 augmentation part       42.7764038 magnetization 

 Broyden mixing:
  rms(total) = 0.87212E+00    rms(broyden)= 0.87207E+00
  rms(prec ) = 0.12376E+01
  weight for this iteration     100.00

 eigenvalues of (default mixing * dielectric matrix)
  average eigenvalue GAMMA=   0.5909
  1.1772  1.1772  1.0052  0.1678  0.1678  0.2204  0.2204

 Free energy of the ion-electron system (eV)
  ---------------------------------------------------
  alpha Z        PSCENC =       552.45265673
  Ewald energy   TEWEN  =     -5263.49850562
  -Hartree energ DENC   =      -679.23346423
  -exchange      EXHF   =         0.00000000
  -V(xc)+E(xc)   XCENC  =      -769.56430003
  PAW double counting   =      7377.05920036    -6570.90362508
  entropy T*S    EENTRO =        -0.12958222
  eigenvalues    EBANDS =       488.89286515
  atomic energy  EATOM  =      4687.48422623
  Solvation  Ediel_sol  =         0.00000000
  ---------------------------------------------------
  free energy    TOTEN  =      -177.44052871 eV

  energy without entropy =     -177.31094649  energy(sigma->0) =     -177.37573760


--------------------------------------------------------------------------------------------------------




--------------------------------------- Iteration      1(  13)  ---------------------------------------


    POTLOK:  cpu time    0.0306: real time    0.0308
    SETDIJ:  cpu time    0.0174: real time    0.0175
     EDDAV:  cpu time    2.0914: real time    2.4915
       DOS:  cpu time    0.0015: real time    0.0014
    CHARGE:  cpu time    0.0505: real time    0.0522
    MIXING:  cpu time    0.0020: real time    0.0020
    --------------------------------------------
      LOOP:  cpu time    2.1934: real time    2.5955

 eigenvalue-minimisations  :  1736
 total energy-change (2. order) : 0.3877383E+00  (-0.3367565E+00)
 number of electron     108.9999895 magnetization 
 augmentation part       43.3150362 magnetization 

 Broyden mixing:
  rms(total) = 0.58023E+00    rms(broyden)= 0.58009E+00
  rms(prec ) = 0.89361E+00
  weight for this iteration     100.00

 eigenvalues of (default mixing * dielectric matrix)
  average eigenvalue GAMMA=   0.6445
  1.5842  1.5842  0.7931  0.4614  0.2072  0.1711  0.1711  0.1834

 Free energy of the ion-electron system (eV)
  ---------------------------------------------------
  alpha Z        PSCENC =       552.45265673
  Ewald energy   TEWEN  =     -5263.49850562
  -Hartree energ DENC   =      -671.02756620
  -exchange      EXHF   =         0.00000000
  -V(xc)+E(xc)   XCENC  =      -769.25267050
  PAW double counting   =      7560.46373809    -6754.89500728
  entropy T*S    EENTRO =        -0.12839843
  eigenvalues    EBANDS =       481.34873654
  atomic energy  EATOM  =      4687.48422623
  Solvation  Ediel_sol  =         0.00000000
  ---------------------------------------------------
  free energy    TOTEN  =      -177.05279045 eV

  energy without entropy =     -176.92439202  energy(sigma->0) =     -176.98859123


--------------------------------------------------------------------------------------------------------




--------------------------------------- Iteration      1(  14)  ---------------------------------------


    POTLOK:  cpu time    0.0309: real time    0.0311
    SETDIJ:  cpu time    0.0168: real time    0.0168
     EDDAV:  cpu time    2.3786: real time    2.3823
       DOS:  cpu time    0.0015: real time    0.0015
    CHARGE:  cpu time    0.0510: real time    0.0510
    MIXING:  cpu time    0.0023: real time    0.0023
    --------------------------------------------
      LOOP:  cpu time    2.4811: real time    2.4850

 eigenvalue-minimisations  :  2064
 total energy-change (2. order) :-0.1812985E-01  (-0.1749759E+00)
 number of electron     108.9999894 magnetization 
 augmentation part       43.4915920 magnetization 

 Broyden mixing:
  rms(total) = 0.50141E+00    rms(broyden)= 0.50125E+00
  rms(prec ) = 0.80391E+00
  weight for this iteration     100.00

 eigenvalues of (default mixing * dielectric matrix)
  average eigenvalue GAMMA=   0.6758
  1.9112  1.9112  0.6760  0.6760  0.2049  0.2049  0.1681  0.1681  0.1615

 Free energy of the ion-electron system (eV)
  ---------------------------------------------------
  alpha Z        PSCENC =       552.45265673
  Ewald energy   TEWEN  =     -5263.49850562
  -Hartree energ DENC   =      -668.76591056
  -exchange      EXHF   =         0.00000000
  -V(xc)+E(xc)   XCENC  =      -769.15677038
  PAW double counting   =      7615.45550446    -6810.19607101
  entropy T*S    EENTRO =        -0.13984049
  eigenvalues    EBANDS =       479.29379035
  atomic energy  EATOM  =      4687.48422623
  Solvation  Ediel_sol  =         0.00000000
  ---------------------------------------------------
  free energy    TOTEN  =      -177.07092029 eV

  energy without entropy =     -176.93107981  energy(sigma->0) =     -177.00100005


--------------------------------------------------------------------------------------------------------




--------------------------------------- Iteration      1(  15)  ---------------------------------------


    POTLOK:  cpu time    0.0307: real time    0.0308
    SETDIJ:  cpu time    0.0172: real time    0.0172
     EDDAV:  cpu time    2.3633: real time    2.3727
       DOS:  cpu time    0.0016: real time    0.0016
    CHARGE:  cpu time    0.0532: real time    0.0533
    MIXING:  cpu time    0.0024: real time    0.0024
    --------------------------------------------
      LOOP:  cpu time    2.4684: real time    2.4781

 eigenvalue-minimisations  :  2144
 total energy-change (2. order) : 0.1368610E+00  (-0.6261056E-01)
 number of electron     108.9999895 magnetization 
 augmentation part       43.4755498 magnetization 

 Broyden mixing:
  rms(total) = 0.26830E+00    rms(broyden)= 0.26818E+00
  rms(prec ) = 0.34797E+00
  weight for this iteration     100.00

 eigenvalues of (default mixing * dielectric matrix)
  average eigenvalue GAMMA=   0.6414
  1.9579  1.9579  0.6327  0.6327  0.3383  0.2116  0.1988  0.1726  0.1726  0.1389

 Free energy of the ion-electron system (eV)
  ---------------------------------------------------
  alpha Z        PSCENC =       552.45265673
  Ewald energy   TEWEN  =     -5263.49850562
  -Hartree energ DENC   =      -669.10693766
  -exchange      EXHF   =         0.00000000
  -V(xc)+E(xc)   XCENC  =      -769.03467998
  PAW double counting   =      7650.07733955    -6845.44092220
  entropy T*S    EENTRO =        -0.13801365
  eigenvalues    EBANDS =       480.27077728
  atomic energy  EATOM  =      4687.48422623
  Solvation  Ediel_sol  =         0.00000000
  ---------------------------------------------------
  free energy    TOTEN  =      -176.93405932 eV

  energy without entropy =     -176.79604566  energy(sigma->0) =     -176.86505249


--------------------------------------------------------------------------------------------------------




--------------------------------------- Iteration      1(  16)  ---------------------------------------


    POTLOK:  cpu time    0.0303: real time    0.0305
    SETDIJ:  cpu time    0.0176: real time    0.0176
     EDDAV:  cpu time    2.3654: real time    2.5327
       DOS:  cpu time    0.0016: real time    0.0016
    CHARGE:  cpu time    0.0498: real time    0.0979
    MIXING:  cpu time    0.0023: real time    0.0023
    --------------------------------------------
      LOOP:  cpu time    2.4671: real time    2.6825

 eigenvalue-minimisations  :  2128
 total energy-change (2. order) : 0.1829057E-01  (-0.1338311E-01)
 number of electron     108.9999895 magnetization 
 augmentation part       43.4546713 magnetization 

 Broyden mixing:
  rms(total) = 0.21529E+00    rms(broyden)= 0.21527E+00
  rms(prec ) = 0.26588E+00
  weight for this iteration     100.00

 eigenvalues of (default mixing * dielectric matrix)
  average eigenvalue GAMMA=   0.7024
  2.3007  1.8477  0.8432  0.8432  0.8219  0.2050  0.2050  0.1688  0.1688  0.1789
  0.1427

 Free energy of the ion-electron system (eV)
  ---------------------------------------------------
  alpha Z        PSCENC =       552.45265673
  Ewald energy   TEWEN  =     -5263.49850562
  -Hartree energ DENC   =      -669.37802367
  -exchange      EXHF   =         0.00000000
  -V(xc)+E(xc)   XCENC  =      -769.01539129
  PAW double counting   =      7653.38289249    -6848.94024703
  entropy T*S    EENTRO =        -0.13791079
  eigenvalues    EBANDS =       480.73453420
  atomic energy  EATOM  =      4687.48422623
  Solvation  Ediel_sol  =         0.00000000
  ---------------------------------------------------
  free energy    TOTEN  =      -176.91576875 eV

  energy without entropy =     -176.77785796  energy(sigma->0) =     -176.84681335


--------------------------------------------------------------------------------------------------------




--------------------------------------- Iteration      1(  17)  ---------------------------------------


    POTLOK:  cpu time    0.0300: real time    0.0301
    SETDIJ:  cpu time    0.0171: real time    0.0451
     EDDAV:  cpu time    2.2879: real time    2.5168
       DOS:  cpu time    0.0015: real time    0.0015
    CHARGE:  cpu time    0.0500: real time    0.0501
    MIXING:  cpu time    0.0022: real time    0.0022
    --------------------------------------------
      LOOP:  cpu time    2.3888: real time    2.6458

 eigenvalue-minimisations  :  2072
 total energy-change (2. order) : 0.1133737E-01  (-0.1263122E-01)
 number of electron     108.9999894 magnetization 
 augmentation part       43.3866645 magnetization 

 Broyden mixing:
  rms(total) = 0.15153E+00    rms(broyden)= 0.15149E+00
  rms(prec ) = 0.21870E+00
  weight for this iteration     100.00

 eigenvalues of (default mixing * dielectric matrix)
  average eigenvalue GAMMA=   0.6724
  2.4418  1.7111  0.8897  0.8897  0.8392  0.2450  0.2021  0.2021  0.1686  0.1686
  0.1699  0.1413

 Free energy of the ion-electron system (eV)
  ---------------------------------------------------
  alpha Z        PSCENC =       552.45265673
  Ewald energy   TEWEN  =     -5263.49850562
  -Hartree energ DENC   =      -669.94532708
  -exchange      EXHF   =         0.00000000
  -V(xc)+E(xc)   XCENC  =      -768.98100551
  PAW double counting   =      7661.22548308    -6857.54935815
  entropy T*S    EENTRO =        -0.13776595
  eigenvalues    EBANDS =       482.04516489
  atomic energy  EATOM  =      4687.48422623
  Solvation  Ediel_sol  =         0.00000000
  ---------------------------------------------------
  free energy    TOTEN  =      -176.90443138 eV

  energy without entropy =     -176.76666543  energy(sigma->0) =     -176.83554840


--------------------------------------------------------------------------------------------------------




--------------------------------------- Iteration      1(  18)  ---------------------------------------


    POTLOK:  cpu time    0.0300: real time    0.0301
    SETDIJ:  cpu time    0.0167: real time    0.0168
     EDDAV:  cpu time    2.3643: real time    2.3958
       DOS:  cpu time    0.0015: real time    0.0015
    CHARGE:  cpu time    0.0604: real time    0.0613
    MIXING:  cpu time    0.0032: real time    0.0032
    --------------------------------------------
      LOOP:  cpu time    2.4762: real time    2.5087

 eigenvalue-minimisations  :  2056
 total energy-change (2. order) : 0.1400651E-01  (-0.8806625E-02)
 number of electron     108.9999895 magnetization 
 augmentation part       43.3592246 magnetization 

 Broyden mixing:
  rms(total) = 0.80527E-01    rms(broyden)= 0.80477E-01
  rms(prec ) = 0.10311E+00
  weight for this iteration     100.00

 eigenvalues of (default mixing * dielectric matrix)
  average eigenvalue GAMMA=   0.6959
  2.4530  1.3109  1.2799  1.2799  0.7434  0.7434  0.2032  0.2032  0.1946  0.1693
  0.1693  0.1562  0.1399

 Free energy of the ion-electron system (eV)
  ---------------------------------------------------
  alpha Z        PSCENC =       552.45265673
  Ewald energy   TEWEN  =     -5263.49850562
  -Hartree energ DENC   =      -670.12133560
  -exchange      EXHF   =         0.00000000
  -V(xc)+E(xc)   XCENC  =      -768.97520316
  PAW double counting   =      7662.21697907    -6858.75533836
  entropy T*S    EENTRO =        -0.13832018
  eigenvalues    EBANDS =       482.44441601
  atomic energy  EATOM  =      4687.48422623
  Solvation  Ediel_sol  =         0.00000000
  ---------------------------------------------------
  free energy    TOTEN  =      -176.89042487 eV

  energy without entropy =     -176.75210470  energy(sigma->0) =     -176.82126478


--------------------------------------------------------------------------------------------------------




--------------------------------------- Iteration      1(  19)  ---------------------------------------


    POTLOK:  cpu time    0.0347: real time    0.0348
    SETDIJ:  cpu time    0.0176: real time    0.0176
     EDDAV:  cpu time    2.3256: real time    2.3285
       DOS:  cpu time    0.0015: real time    0.0015
    CHARGE:  cpu time    0.0499: real time    0.0500
    MIXING:  cpu time    0.0028: real time    0.0028
    --------------------------------------------
      LOOP:  cpu time    2.4321: real time    2.4352

 eigenvalue-minimisations  :  1984
 total energy-change (2. order) : 0.8512786E-03  (-0.2764731E-02)
 number of electron     108.9999895 magnetization 
 augmentation part       43.3198660 magnetization 

 Broyden mixing:
  rms(total) = 0.75540E-01    rms(broyden)= 0.75521E-01
  rms(prec ) = 0.10665E+00
  weight for this iteration     100.00

 eigenvalues of (default mixing * dielectric matrix)
  average eigenvalue GAMMA=   0.6790
  2.3932  1.4915  1.4915  1.2090  0.7587  0.7587  0.2064  0.2009  0.2009  0.1699
  0.1699  0.1582  0.1582  0.1394

 Free energy of the ion-electron system (eV)
  ---------------------------------------------------
  alpha Z        PSCENC =       552.45265673
  Ewald energy   TEWEN  =     -5263.49850562
  -Hartree energ DENC   =      -670.48082594
  -exchange      EXHF   =         0.00000000
  -V(xc)+E(xc)   XCENC  =      -768.97277575
  PAW double counting   =      7660.15271058    -6856.89137579
  entropy T*S    EENTRO =        -0.13909571
  eigenvalues    EBANDS =       483.00341168
  atomic energy  EATOM  =      4687.48422623
  Solvation  Ediel_sol  =         0.00000000
  ---------------------------------------------------
  free energy    TOTEN  =      -176.88957359 eV

  energy without entropy =     -176.75047788  energy(sigma->0) =     -176.82002574


--------------------------------------------------------------------------------------------------------




--------------------------------------- Iteration      1(  20)  ---------------------------------------


    POTLOK:  cpu time    0.0293: real time    0.0295
    SETDIJ:  cpu time    0.0167: real time    0.0167
     EDDAV:  cpu time    2.3337: real time    2.5885
       DOS:  cpu time    0.0017: real time    0.0017
    CHARGE:  cpu time    0.0535: real time    0.0535
    MIXING:  cpu time    0.0034: real time    0.0034
    --------------------------------------------
      LOOP:  cpu time    2.4383: real time    2.6933

 eigenvalue-minimisations  :  1984
 total energy-change (2. order) : 0.2932491E-02  (-0.1841490E-02)
 number of electron     108.9999895 magnetization 
 augmentation part       43.3019425 magnetization 

 Broyden mixing:
  rms(total) = 0.44503E-01    rms(broyden)= 0.44482E-01
  rms(prec ) = 0.59761E-01
  weight for this iteration     100.00

 eigenvalues of (default mixing * dielectric matrix)
  average eigenvalue GAMMA=   0.6718
  2.3930  1.6054  1.6054  1.2048  0.7431  0.7431  0.3748  0.2110  0.2110  0.1914
  0.1692  0.1692  0.1716  0.1452  0.1385

 Free energy of the ion-electron system (eV)
  ---------------------------------------------------
  alpha Z        PSCENC =       552.45265673
  Ewald energy   TEWEN  =     -5263.49850562
  -Hartree energ DENC   =      -670.62229589
  -exchange      EXHF   =         0.00000000
  -V(xc)+E(xc)   XCENC  =      -768.97650199
  PAW double counting   =      7658.50682205    -6855.32606678
  entropy T*S    EENTRO =        -0.13830996
  eigenvalues    EBANDS =       483.23133412
  atomic energy  EATOM  =      4687.48422623
  Solvation  Ediel_sol  =         0.00000000
  ---------------------------------------------------
  free energy    TOTEN  =      -176.88664110 eV

  energy without entropy =     -176.74833115  energy(sigma->0) =     -176.81748613


--------------------------------------------------------------------------------------------------------




--------------------------------------- Iteration      1(  21)  ---------------------------------------


    POTLOK:  cpu time    0.0325: real time    0.0326
    SETDIJ:  cpu time    0.0181: real time    0.0182
     EDDAV:  cpu time    2.2500: real time    2.2536
       DOS:  cpu time    0.0015: real time    0.0015
    CHARGE:  cpu time    0.0523: real time    0.0524
    MIXING:  cpu time    0.0030: real time    0.0030
    --------------------------------------------
      LOOP:  cpu time    2.3574: real time    2.3612

 eigenvalue-minimisations  :  1936
 total energy-change (2. order) : 0.3371937E-03  (-0.2865227E-03)
 number of electron     108.9999895 magnetization 
 augmentation part       43.2934899 magnetization 

 Broyden mixing:
  rms(total) = 0.36570E-01    rms(broyden)= 0.36566E-01
  rms(prec ) = 0.49384E-01
  weight for this iteration     100.00

 eigenvalues of (default mixing * dielectric matrix)
  average eigenvalue GAMMA=   0.7392
  2.6331  2.0043  2.0043  1.1804  0.7986  0.7986  0.8188  0.2079  0.2079  0.1964
  0.1964  0.1691  0.1691  0.1576  0.1409  0.1431

 Free energy of the ion-electron system (eV)
  ---------------------------------------------------
  alpha Z        PSCENC =       552.45265673
  Ewald energy   TEWEN  =     -5263.49850562
  -Hartree energ DENC   =      -670.65526274
  -exchange      EXHF   =         0.00000000
  -V(xc)+E(xc)   XCENC  =      -768.97759776
  PAW double counting   =      7658.22880582    -6855.08313558
  entropy T*S    EENTRO =        -0.13826344
  eigenvalues    EBANDS =       483.30077246
  atomic energy  EATOM  =      4687.48422623
  Solvation  Ediel_sol  =         0.00000000
  ---------------------------------------------------
  free energy    TOTEN  =      -176.88630391 eV

  energy without entropy =     -176.74804047  energy(sigma->0) =     -176.81717219


--------------------------------------------------------------------------------------------------------




--------------------------------------- Iteration      1(  22)  ---------------------------------------


    POTLOK:  cpu time    0.0302: real time    0.0303
    SETDIJ:  cpu time    0.0172: real time    0.0172
     EDDAV:  cpu time    2.3038: real time    2.6509
       DOS:  cpu time    0.0016: real time    0.0016
    CHARGE:  cpu time    0.0510: real time    0.0719
    MIXING:  cpu time    0.0031: real time    0.0031
    --------------------------------------------
      LOOP:  cpu time    2.4069: real time    2.7751

 eigenvalue-minimisations  :  2048
 total energy-change (2. order) : 0.6594289E-03  (-0.3336711E-03)
 number of electron     108.9999895 magnetization 
 augmentation part       43.2817262 magnetization 

 Broyden mixing:
  rms(total) = 0.19922E-01    rms(broyden)= 0.19912E-01
  rms(prec ) = 0.27126E-01
  weight for this iteration     100.00

 eigenvalues of (default mixing * dielectric matrix)
  average eigenvalue GAMMA=   0.7280
  2.6318  2.1056  2.1056  1.2015  0.8368  0.8049  0.8049  0.3262  0.2043  0.2043
  0.2037  0.1696  0.1696  0.1654  0.1396  0.1507  0.1507

 Free energy of the ion-electron system (eV)
  ---------------------------------------------------
  alpha Z        PSCENC =       552.45265673
  Ewald energy   TEWEN  =     -5263.49850562
  -Hartree energ DENC   =      -670.71803654
  -exchange      EXHF   =         0.00000000
  -V(xc)+E(xc)   XCENC  =      -768.97678664
  PAW double counting   =      7659.06140542    -6856.05234602
  entropy T*S    EENTRO =        -0.13834087
  eigenvalues    EBANDS =       483.50008284
  atomic energy  EATOM  =      4687.48422623
  Solvation  Ediel_sol  =         0.00000000
  ---------------------------------------------------
  free energy    TOTEN  =      -176.88564448 eV

  energy without entropy =     -176.74730361  energy(sigma->0) =     -176.81647405


--------------------------------------------------------------------------------------------------------




--------------------------------------- Iteration      1(  23)  ---------------------------------------


    POTLOK:  cpu time    0.0316: real time    0.0558
    SETDIJ:  cpu time    0.0171: real time    0.0405
     EDDAV:  cpu time    2.4400: real time    2.7677
       DOS:  cpu time    0.0016: real time    0.0016
    CHARGE:  cpu time    0.0512: real time    0.0633
    MIXING:  cpu time    0.0035: real time    0.0035
    --------------------------------------------
      LOOP:  cpu time    2.5449: real time    2.9323

 eigenvalue-minimisations  :  2048
 total energy-change (2. order) : 0.1648677E-03  (-0.1827454E-03)
 number of electron     108.9999895 magnetization 
 augmentation part       43.2751307 magnetization 

 Broyden mixing:
  rms(total) = 0.11655E-01    rms(broyden)= 0.11648E-01
  rms(prec ) = 0.16331E-01
  weight for this iteration     100.00

 eigenvalues of (default mixing * dielectric matrix)
  average eigenvalue GAMMA=   0.7364
  2.3138  2.3138  2.0000  1.4635  0.8267  0.8267  0.8858  0.8858  0.2052  0.2052
  0.2047  0.1881  0.1694  0.1694  0.1642  0.1505  0.1413  0.1413

 Free energy of the ion-electron system (eV)
  ---------------------------------------------------
  alpha Z        PSCENC =       552.45265673
  Ewald energy   TEWEN  =     -5263.49850562
  -Hartree energ DENC   =      -670.76610506
  -exchange      EXHF   =         0.00000000
  -V(xc)+E(xc)   XCENC  =      -768.97829021
  PAW double counting   =      7658.62139125    -6855.64902869
  entropy T*S    EENTRO =        -0.13833766
  eigenvalues    EBANDS =       483.58651342
  atomic energy  EATOM  =      4687.48422623
  Solvation  Ediel_sol  =         0.00000000
  ---------------------------------------------------
  free energy    TOTEN  =      -176.88547961 eV

  energy without entropy =     -176.74714196  energy(sigma->0) =     -176.81631078


--------------------------------------------------------------------------------------------------------




--------------------------------------- Iteration      1(  24)  ---------------------------------------


    POTLOK:  cpu time    0.0309: real time    0.0311
    SETDIJ:  cpu time    0.0171: real time    0.0171
     EDDAV:  cpu time    2.1202: real time    2.1432
       DOS:  cpu time    0.0016: real time    0.0016
    CHARGE:  cpu time    0.0502: real time    0.0984
    MIXING:  cpu time    0.0033: real time    0.0033
    --------------------------------------------
      LOOP:  cpu time    2.2233: real time    2.2947

 eigenvalue-minimisations  :  1760
 total energy-change (2. order) : 0.8114503E-04  (-0.8483429E-04)
 number of electron     108.9999895 magnetization 
 augmentation part       43.2637789 magnetization 

 Broyden mixing:
  rms(total) = 0.52958E-02    rms(broyden)= 0.52909E-02
  rms(prec ) = 0.86451E-02
  weight for this iteration     100.00

 eigenvalues of (default mixing * dielectric matrix)
  average eigenvalue GAMMA=   0.7158
  2.3718  2.1567  2.1567  1.4030  0.9086  0.9086  0.8339  0.8339  0.2901  0.2057
  0.2057  0.2028  0.1890  0.1694  0.1694  0.1629  0.1487  0.1413  0.1413

 Free energy of the ion-electron system (eV)
  ---------------------------------------------------
  alpha Z        PSCENC =       552.45265673
  Ewald energy   TEWEN  =     -5263.49850562
  -Hartree energ DENC   =      -670.89903766
  -exchange      EXHF   =         0.00000000
  -V(xc)+E(xc)   XCENC  =      -768.97882978
  PAW double counting   =      7657.58955294    -6854.65213490
  entropy T*S    EENTRO =        -0.13829220
  eigenvalues    EBANDS =       483.75496579
  atomic energy  EATOM  =      4687.48422623
  Solvation  Ediel_sol  =         0.00000000
  ---------------------------------------------------
  free energy    TOTEN  =      -176.88539847 eV

  energy without entropy =     -176.74710627  energy(sigma->0) =     -176.81625237


--------------------------------------------------------------------------------------------------------




--------------------------------------- Iteration      1(  25)  ---------------------------------------


    POTLOK:  cpu time    0.0296: real time    0.0296
    SETDIJ:  cpu time    0.0168: real time    0.0169
     EDDAV:  cpu time    2.1139: real time    2.6009
       DOS:  cpu time    0.0016: real time    0.0016
    CHARGE:  cpu time    0.0515: real time    0.0515
    MIXING:  cpu time    0.0034: real time    0.0034
    --------------------------------------------
      LOOP:  cpu time    2.2168: real time    2.7040

 eigenvalue-minimisations  :  1768
 total energy-change (2. order) : 0.1603400E-04  (-0.2318443E-04)
 number of electron     108.9999895 magnetization 
 augmentation part       43.2623295 magnetization 

 Broyden mixing:
  rms(total) = 0.29079E-02    rms(broyden)= 0.29064E-02
  rms(prec ) = 0.43798E-02
  weight for this iteration     100.00

 eigenvalues of (default mixing * dielectric matrix)
  average eigenvalue GAMMA=   0.7442
  2.6655  2.1955  2.1955  1.3343  1.3343  0.8112  0.8112  0.8045  0.8045  0.2053
  0.2053  0.1694  0.1694  0.2030  0.1961  0.1840  0.1632  0.1491  0.1416  0.1416

 Free energy of the ion-electron system (eV)
  ---------------------------------------------------
  alpha Z        PSCENC =       552.45265673
  Ewald energy   TEWEN  =     -5263.49850562
  -Hartree energ DENC   =      -670.89972890
  -exchange      EXHF   =         0.00000000
  -V(xc)+E(xc)   XCENC  =      -768.97810809
  PAW double counting   =      7657.85545696    -6854.92168249
  entropy T*S    EENTRO =        -0.13832494
  eigenvalues    EBANDS =       483.75862769
  atomic energy  EATOM  =      4687.48422623
  Solvation  Ediel_sol  =         0.00000000
  ---------------------------------------------------
  free energy    TOTEN  =      -176.88538243 eV

  energy without entropy =     -176.74705750  energy(sigma->0) =     -176.81621997


--------------------------------------------------------------------------------------------------------




--------------------------------------- Iteration      1(  26)  ---------------------------------------


    POTLOK:  cpu time    0.0308: real time    0.0309
    SETDIJ:  cpu time    0.0167: real time    0.0168
     EDDAV:  cpu time    1.3952: real time    1.3973
       DOS:  cpu time    0.0016: real time    0.0016
    --------------------------------------------
      LOOP:  cpu time    1.4443: real time    1.4464

 eigenvalue-minimisations  :  1000
 total energy-change (2. order) : 0.3418615E-05  (-0.3764580E-05)
 number of electron     108.9999895 magnetization 
 augmentation part       43.2623295 magnetization 

 Free energy of the ion-electron system (eV)
  ---------------------------------------------------
  alpha Z        PSCENC =       552.45265673
  Ewald energy   TEWEN  =     -5263.49850562
  -Hartree energ DENC   =      -670.89423285
  -exchange      EXHF   =         0.00000000
  -V(xc)+E(xc)   XCENC  =      -768.97789867
  PAW double counting   =      7658.27721208    -6855.34951518
  entropy T*S    EENTRO =        -0.13835782
  eigenvalues    EBANDS =       483.75903609
  atomic energy  EATOM  =      4687.48422623
  Solvation  Ediel_sol  =         0.00000000
  ---------------------------------------------------
  free energy    TOTEN  =      -176.88537902 eV

  energy without entropy =     -176.74702120  energy(sigma->0) =     -176.81620011


--------------------------------------------------------------------------------------------------------




 average (electrostatic) potential at core
  the test charge radii are     1.2064  1.0103
  (the norm of the test charge is              1.0000)
       1 -38.9562       2 -39.2688       3 -39.2517       4 -38.9389       5 -39.1371
       6 -39.1362       7 -39.5255       8 -39.1356       9 -39.1166      10 -38.9477
      11 -39.1343      12 -39.0259      13 -39.5313      14 -38.9640      15 -39.4059
      16 -38.9911      17 -39.1497      18 -43.0351      19 -42.9761      20 -43.0196
 
 
 
 E-fermi :   6.3273     XC(G=0): -12.6257     alpha+bet :-15.2488


 k-point     1 :       0.0000    0.0000    0.0000
  band No.  band energies     occupation 
      1      -0.5892      2.00000
      2       1.1445      2.00000
      3       1.3040      2.00000
      4       2.5937      2.00000
      5       2.8634      2.00000
      6       2.8777      2.00000
      7       3.0149      2.00000
      8       3.0921      2.00000
      9       3.2897      2.00000
     10       3.3937      2.00000
     11       3.5053      2.00000
     12       3.5503      2.00000
     13       3.6441      2.00000
     14       3.7200      2.00000
     15       3.8089      2.00000
     16       3.8294      2.00000
     17       3.9440      2.00000
     18       3.9525      2.00000
     19       4.0005      2.00000
     20       4.0667      2.00000
     21       4.1140      2.00000
     22       4.1769      2.00000
     23       4.2352      2.00000
     24       4.2832      2.00000
     25       4.3339      2.00000
     26       4.4166      2.00000
     27       4.4372      2.00000
     28       4.5394      2.00000
     29       4.5854      2.00000
     30       4.6609      2.00000
     31       4.6806      2.00000
     32       4.8390      2.00000
     33       4.8665      2.00000
     34       5.0521      2.00000
     35       5.1306      2.00000
     36       5.1749      2.00000
     37       5.2549      2.00000
     38       5.2776      2.00000
     39       5.2864      2.00000
     40       5.3351      2.00000
     41       5.3712      2.00000
     42       5.4274      2.00000
     43       5.4563      2.00000
     44       5.5536      2.00000
     45       5.5770      2.00000
     46       5.6453      2.00000
     47       5.8251      2.00000
     48       5.8916      2.00000
     49       6.0383      1.99996
     50       6.0563      1.99987
     51       6.2210      1.86758
     52       6.2485      1.73492
     53       6.3040      1.25908
     54       6.3530      0.71682
     55       6.3955      0.33536
     56       6.5092      0.01014
     57       6.5948      0.00016
     58       6.7127      0.00000
[...]
     18       4.1083      2.00000
     19       4.1781      2.00000
     20       4.3096      2.00000
     21       4.3558      2.00000
     22       4.5819      2.00000
     23       4.6258      2.00000
     24       4.6431      2.00000
     25       4.7374      2.00000
     26       4.7850      2.00000
     27       4.8461      2.00000
     28       4.8897      2.00000
     29       4.9725      2.00000
     30       5.0241      2.00000
     31       5.1355      2.00000
     32       5.1626      2.00000
     33       5.2719      2.00000
     34       5.2968      2.00000
     35       5.3559      2.00000
     36       5.4280      2.00000
     37       5.4720      2.00000
     38       5.5530      2.00000
     39       5.6380      2.00000
     40       5.6837      2.00000
     41       5.7557      2.00000
     42       5.8083      2.00000
     43       5.8697      2.00000
     44       5.9779      2.00000
     45       6.0172      2.00000
     46       6.0471      2.00000
     47       6.0980      2.00000
     48       6.1240      2.00000
     49       6.1284      2.00000
     50       6.1679      2.00000
     51       6.2327      1.99999
     52       6.2951      1.99966
     53       6.3399      1.99681
     54       6.3736      1.98657
     55       6.4587      1.79541
     56       6.4755      1.69787
     57       6.4790      1.67370
     58       6.9973      0.00000
     59       7.0725      0.00000
     60       7.2454      0.00000
     61       7.2609      0.00000
     62       7.3109      0.00000
     63       7.4480      0.00000
     64       7.4845      0.00000
     65       7.5506      0.00000
     66       7.6244      0.00000
     67       7.6954      0.00000
     68       7.7300      0.00000

 k-point     7 :       0.0000    0.5000    0.3333
  band No.  band energies     occupation 
      1       0.9058      2.00000
      2       1.2947      2.00000
      3       2.8248      2.00000
      4       2.9632      2.00000
      5       3.1127      2.00000
      6       3.2001      2.00000
      7       3.2328      2.00000
      8       3.3087      2.00000
      9       3.4064      2.00000
     10       3.4549      2.00000
     11       3.5130      2.00000
     12       3.5338      2.00000
     13       3.6848      2.00000
     14       3.7857      2.00000
     15       3.8973      2.00000
     16       3.9092      2.00000
     17       3.9927      2.00000
     18       4.0734      2.00000
     19       4.1800      2.00000
     20       4.2282      2.00000
     21       4.2456      2.00000
     22       4.3235      2.00000
     23       4.5567      2.00000
     24       4.6822      2.00000
     25       4.7296      2.00000
     26       4.7860      2.00000
     27       4.8136      2.00000
     28       4.8525      2.00000
     29       4.9244      2.00000
     30       4.9606      2.00000
     31       5.0503      2.00000
     32       5.1620      2.00000
     33       5.2802      2.00000
     34       5.3141      2.00000
     35       5.3636      2.00000
     36       5.4237      2.00000
     37       5.5085      2.00000
     38       5.5588      2.00000
     39       5.6438      2.00000
     40       5.7424      2.00000
     41       5.7821      2.00000
     42       5.8068      2.00000
     43       5.8839      2.00000
     44       5.8993      2.00000
     45       5.9541      2.00000
     46       6.0167      2.00000
     47       6.0804      2.00000
     48       6.1080      2.00000
     49       6.1200      2.00000
     50       6.1598      2.00000
     51       6.1749      2.00000
     52       6.2240      2.00000
     53       6.2440      1.99998
     54       6.3881      1.97662
     55       6.4942      1.55647
     56       6.5455      1.03247
     57       6.6874      0.04934
     58       6.7149      0.01855
     59       7.1439      0.00000
     60       7.2078      0.00000
     61       7.3181      0.00000
     62       7.4365      0.00000
     63       7.4872      0.00000
     64       7.5326      0.00000
     65       7.5865      0.00000
     66       7.6350      0.00000
     67       7.6860      0.00000
     68       7.7552      0.00000

 k-point     8 :       0.5000    0.5000    0.3333
  band No.  band energies     occupation 
      1       1.4821      2.00000
      2       1.8498      2.00000
      3       2.1123      2.00000
      4       2.2826      2.00000
      5       2.8985      2.00000
      6       2.9318      2.00000
      7       3.2496      2.00000
      8       3.3912      2.00000
      9       3.4905      2.00000
     10       3.5773      2.00000
     11       3.5896      2.00000
     12       3.6338      2.00000
     13       3.7392      2.00000
     14       3.7705      2.00000
     15       3.8114      2.00000
     16       3.8579      2.00000
     17       3.8788      2.00000
     18       3.9960      2.00000
     19       4.0337      2.00000
     20       4.0636      2.00000
     21       4.1098      2.00000
     22       4.1467      2.00000
     23       4.6594      2.00000
     24       4.7517      2.00000
     25       4.7929      2.00000
     26       4.8338      2.00000
     27       4.9393      2.00000
     28       4.9563      2.00000
     29       5.1077      2.00000
     30       5.1589      2.00000
     31       5.1835      2.00000
     32       5.2435      2.00000
     33       5.3279      2.00000
     34       5.3722      2.00000
     35       5.4021      2.00000
     36       5.5067      2.00000
     37       5.5283      2.00000
     38       5.5583      2.00000
     39       5.5965      2.00000
     40       5.6178      2.00000
     41       5.7386      2.00000
     42       5.7466      2.00000
     43       5.8670      2.00000
     44       5.9210      2.00000
     45       5.9642      2.00000
     46       6.0128      2.00000
     47       6.1081      2.00000
     48       6.1848      2.00000
     49       6.1976      2.00000
     50       6.2455      1.99998
     51       6.3605      1.99213
     52       6.4162      1.93841
     53       6.4191      1.93250
     54       6.4646      1.76431
     55       6.5398      1.09724
     56       6.6622      0.10762
     57       6.7348      0.00840
     58       6.7845      0.00084
     59       6.9085      0.00000
     60       6.9826      0.00000
     61       7.1184      0.00000
     62       7.1558      0.00000
     63       7.3072      0.00000
     64       7.3783      0.00000
     65       7.4242      0.00000
     66       7.5045      0.00000
     67       7.5323      0.00000
     68       7.6018      0.00000


--------------------------------------------------------------------------------------------------------


 soft charge-density along one line, spin component           1
         0         1         2         3         4         5         6         7         8         9
 total charge-density along one line
 
 pseudopotential strength for first ion, spin component:           1
 -0.982   0.000   0.003  -0.000  -0.004  -1.511   0.000   0.002
  0.000  -0.991  -0.000  -0.007   0.000   0.000  -1.519  -0.000
  0.003  -0.000  -0.981  -0.000  -0.005   0.002  -0.000  -1.509
 -0.000  -0.007  -0.000  -0.963  -0.000  -0.000  -0.007  -0.000
 -0.004   0.000  -0.005  -0.000  -0.977  -0.004   0.000  -0.005
 -1.511   0.000   0.002  -0.000  -0.004  -1.989   0.000   0.002
  0.000  -1.519  -0.000  -0.007   0.000   0.000  -1.997  -0.000
  0.002  -0.000  -1.509  -0.000  -0.005   0.002  -0.000  -1.987
 -0.000  -0.007  -0.000  -1.492  -0.000  -0.000  -0.007  -0.000
 -0.004   0.000  -0.005  -0.000  -1.506  -0.004   0.000  -0.004
  0.002   0.000   0.000   0.000  -0.003   0.002   0.000  -0.000
 -0.004  -0.000  -0.001  -0.000   0.004  -0.004  -0.000  -0.000
 -0.003   0.000  -0.004   0.000  -0.005  -0.003   0.000  -0.004
  0.000   0.005   0.000  -0.002  -0.000   0.000   0.005   0.000
  0.007   0.000   0.002   0.000  -0.001   0.007   0.000   0.001
  0.003  -0.000   0.004  -0.000   0.006   0.003  -0.000   0.004
 -0.000  -0.006  -0.000   0.002   0.000  -0.000  -0.006  -0.000
 -0.007  -0.000  -0.002  -0.000   0.002  -0.007  -0.000  -0.002
 total augmentation occupancy for first ion, spin component:           1
  0.447   0.000  -0.060  -0.000  -0.111  -0.761  -0.000   0.121   0.001   0.178  -0.015  -0.001  -0.022   0.000  -0.012  -0.001
  0.000   0.411   0.000  -0.060   0.000  -0.000  -0.689  -0.000   0.125  -0.000   0.000  -0.000   0.000  -0.020   0.000   0.000
 -0.060   0.000   0.484  -0.000   0.097   0.121  -0.000  -0.815   0.000  -0.189   0.006   0.001   0.013   0.000   0.009   0.000
 -0.000  -0.060  -0.000   0.636  -0.000   0.001   0.125   0.000  -1.135   0.000  -0.000  -0.000   0.000   0.000   0.000   0.000
 -0.111   0.000   0.097  -0.000   0.587   0.178  -0.000  -0.188   0.000  -1.011  -0.011   0.000   0.027  -0.000   0.006   0.001
 -0.761  -0.000   0.121   0.001   0.178   1.915   0.000  -0.112  -0.001  -0.159  -0.005   0.001   0.007  -0.000   0.012   0.002
 -0.000  -0.689  -0.000   0.125  -0.000   0.000   1.831   0.000  -0.123   0.000  -0.000   0.000  -0.000   0.032   0.000  -0.000
  0.121  -0.000  -0.815   0.000  -0.188  -0.112   0.000   1.916  -0.000   0.179   0.005  -0.001  -0.002   0.000   0.001   0.001
  0.001   0.125   0.000  -1.135   0.000  -0.001  -0.123  -0.000   2.289  -0.000   0.000   0.000  -0.000   0.008  -0.000  -0.000
  0.178  -0.000  -0.189   0.000  -1.011  -0.159   0.000   0.179  -0.000   2.134   0.034   0.000  -0.019   0.000  -0.004  -0.000
 -0.015   0.000   0.006  -0.000  -0.011  -0.005  -0.000   0.005   0.000   0.034   2.065   0.048  -0.011  -0.000   0.002  -0.001
 -0.001  -0.000   0.001  -0.000   0.000   0.001   0.000  -0.001   0.000   0.000   0.048   0.001   0.001  -0.000   0.000   0.000
 -0.022   0.000   0.013   0.000   0.027   0.007  -0.000  -0.002  -0.000  -0.019  -0.011   0.001   0.360   0.000  -0.002   0.010
  0.000  -0.020   0.000   0.000  -0.000  -0.000   0.032   0.000   0.008   0.000  -0.000  -0.000   0.000   0.388   0.000   0.000
 -0.012   0.000   0.009   0.000   0.006   0.012   0.000   0.001  -0.000  -0.004   0.002   0.000  -0.002   0.000   0.397   0.000
 -0.001   0.000   0.000   0.000   0.001   0.002  -0.000   0.001  -0.000  -0.000  -0.001   0.000   0.010   0.000   0.000   0.000
  0.000  -0.001  -0.000  -0.000  -0.000  -0.000   0.000   0.000   0.000   0.000  -0.000  -0.000   0.000   0.010   0.000   0.000
  0.000   0.000   0.000   0.000   0.000  -0.002  -0.000  -0.001  -0.000  -0.001   0.001   0.000   0.000   0.000   0.011   0.000


------------------------ aborting loop because EDIFF is reached ----------------------------------------


    CHARGE:  cpu time    0.0517: real time    0.0518
    FORLOC:  cpu time    0.0081: real time    0.0081
    FORNL :  cpu time    1.1445: real time    1.1458
    STRESS:  cpu time    1.1742: real time    1.1755
    FORCOR:  cpu time    0.0361: real time    0.0361
    FORHAR:  cpu time    0.0131: real time    0.0131
    MIXING:  cpu time    0.0017: real time    0.0017
    OFIELD:  cpu time    0.0001: real time    0.0001

  FORCE on cell =-STRESS in cart. coord.  units (eV):
  Direction    XX          YY          ZZ          XY          YZ          ZX
  --------------------------------------------------------------------------------------
  Alpha Z   567.59729   567.59729   567.59729
  Ewald   -1779.23439 -1841.68316 -1703.58532   -20.12748     0.27893    -0.00899
  Hartree   217.54695   148.96417   284.35947   -11.43901     0.04018    -0.05007
  E(xc)    -497.73071  -498.25378  -498.05370     0.48078    -0.00330    -0.00276
  Local     283.31928   417.48977   144.12801    31.11383    -0.28038     0.06503
  n-local   -86.90907   -90.88334   -89.11007     0.26366    -0.00352     0.01707
  augment   447.81728   448.92425   447.99014    -0.59605    -0.00884    -0.00356
  Kinetic   847.41167   847.67570   846.49230     0.29562    -0.03322    -0.00384
  Fock        0.00000     0.00000     0.00000     0.00000     0.00000     0.00000
  -------------------------------------------------------------------------------------
  Total      -0.18170    -0.16909    -0.18189    -0.00864    -0.01014     0.01288
  in kB      -1.15448    -1.07437    -1.15569    -0.05493    -0.06445     0.08185
  external pressure =       -1.13 kB  Pullay stress =        0.00 kB


 VOLUME and BASIS-vectors are now :
 -----------------------------------------------------------------------------
  energy-cutoff  :      267.88
  volume of cell :      252.16
      direct lattice vectors                 reciprocal lattice vectors
     6.392083896 -0.030788996 -0.000686815     0.156586877  0.029765507  0.000010001
    -1.821000261  9.579703481  0.001379468     0.000503271  0.104483027  0.000031337
    -0.000028290 -0.001236068  4.121720874     0.000025924 -0.000030009  0.242617100

  length of vectors
     6.392158084  9.751244159  4.121721059     0.159390827  0.104484243  0.242617103


 FORCES acting on ions
    electron-ion (+dipol)            ewald-force                    non-local-force                 convergence-correction
 -----------------------------------------------------------------------------------------------
   0.103E+02 0.464E+02 -.209E-01   -.103E+02 -.469E+02 0.171E-01   -.257E-01 0.543E+00 0.336E-02   -.103E-01 -.401E-01 0.138E-02
   0.467E+02 -.386E+02 -.384E-01   -.471E+02 0.386E+02 0.431E-01   0.423E+00 -.637E-01 -.444E-02   0.428E-02 0.619E-01 -.137E-02
   -.136E+02 0.836E+02 0.430E-01   0.137E+02 -.837E+02 -.471E-01   -.162E+00 0.127E+00 0.319E-02   0.870E-03 -.383E-01 0.164E-02
   -.123E+02 -.142E+01 -.515E-01   0.124E+02 0.196E+01 0.546E-01   -.140E+00 -.512E+00 -.403E-02   0.102E-01 -.357E-01 0.440E-03
   -.338E+02 -.440E+02 -.115E+00   0.342E+02 0.441E+02 0.126E+00   -.418E+00 -.977E-01 -.389E-02   -.730E-02 -.155E-02 -.201E-02
   0.282E+01 0.417E+02 0.509E-01   -.226E+01 -.420E+02 -.616E-01   -.566E+00 0.295E+00 0.399E-02   0.335E-02 -.171E-01 0.166E-02
   -.588E+02 -.257E+02 -.990E-01   0.591E+02 0.257E+02 0.973E-01   -.311E+00 -.151E+00 0.316E-02   0.252E-02 0.622E-01 -.302E-03
   0.278E+02 -.325E+02 -.778E-01   -.281E+02 0.326E+02 0.813E-01   0.270E+00 -.281E-02 -.746E-03   0.776E-02 -.398E-01 -.608E-03
   -.121E+02 -.546E+02 0.857E-01   0.121E+02 0.547E+02 -.817E-01   -.451E-01 -.114E+00 -.332E-02   -.222E-02 -.275E-01 -.253E-02
   -.205E+01 -.424E+01 0.482E-01   0.188E+01 0.417E+01 -.481E-01   0.170E+00 0.104E+00 -.150E-02   0.662E-02 -.264E-01 -.597E-03
   0.856E+00 -.847E+01 0.995E-03   -.144E+01 0.870E+01 0.235E-02   0.601E+00 -.269E+00 -.282E-02   -.142E-01 0.333E-01 0.410E-03
   0.293E+02 -.409E+02 -.140E-01   -.300E+02 0.411E+02 0.234E-01   0.714E+00 -.219E+00 -.621E-02   -.205E-02 0.240E-01 -.147E-02
   0.239E+02 -.377E+02 0.781E-01   -.242E+02 0.376E+02 -.766E-01   0.236E+00 0.589E-02 -.167E-02   -.144E-02 0.777E-01 -.117E-02
   0.796E+01 0.303E+02 0.747E-01   -.817E+01 -.307E+02 -.812E-01   0.211E+00 0.411E+00 0.249E-02   -.372E-02 -.477E-01 0.535E-03
   0.409E+02 0.761E+02 0.199E+00   -.411E+02 -.763E+02 -.206E+00   0.188E+00 0.254E+00 0.347E-04   -.200E-01 -.376E-01 0.208E-02
   -.367E+02 -.452E+02 0.561E-01   0.375E+02 0.454E+02 -.540E-01   -.859E+00 -.273E+00 -.411E-02   0.112E-01 0.526E-01 -.107E-02
   -.229E+02 0.517E+02 0.519E-01   0.232E+02 -.517E+02 -.604E-01   -.294E+00 0.185E-01 0.445E-02   0.115E-01 -.417E-01 0.197E-02
   0.522E+02 0.361E+02 -.140E+00   -.537E+02 -.366E+02 0.145E+00   0.152E+01 0.494E+00 -.902E-02   -.262E-01 0.112E-01 0.405E-02
   -.878E+00 -.841E+02 -.193E+00   0.945E+00 0.847E+02 0.207E+00   -.709E-01 -.653E+00 -.602E-02   0.515E-02 0.675E-01 -.425E-02
   -.498E+02 0.513E+02 0.731E-01   0.512E+02 -.515E+02 -.795E-01   -.139E+01 0.154E+00 -.102E-02   0.235E-01 -.500E-02 0.402E-02
 -----------------------------------------------------------------------------------------------
   -.603E-01 -.796E-01 0.115E-01   0.142E-13 -.142E-13 0.138E-13   0.570E-01 0.507E-01 -.281E-01   -.657E-03 0.319E-01 0.280E-02
 
 
 POSITION                                       TOTAL-FORCE (eV/Angst)
 -----------------------------------------------------------------------------------
      3.77042      3.29656      1.57477        -0.003746      0.001675      0.001632
      2.91490      8.03685      1.57313         0.001873     -0.004033     -0.000463
     -0.26697      4.29165      1.57583        -0.001456     -0.000071      0.001393
      1.37753      2.36179      1.57412        -0.000979     -0.002702      0.000246
      2.96843      0.36057      1.57135        -0.002245      0.000556      0.005272
      2.16849      5.21961      1.57613        -0.000485      0.002914     -0.004338
      0.44950      7.10382      1.57408        -0.000225     -0.006079      0.001835
      5.42760      1.31958      1.57215        -0.002128      0.002635      0.002859
      1.00776      0.86375      3.63358         0.002442      0.007600     -0.001168
      3.38904      1.84944      3.63427         0.003752      0.002634     -0.001299
      2.46552      6.63113      3.63518         0.002616     -0.005466      0.001623
      5.01978     -0.10116      3.63195         0.000328     -0.000628      0.002372
      4.89906      7.57298      3.63410        -0.000730      0.002231     -0.000670
      5.77560      2.76999      3.63522        -0.000012      0.002767     -0.002754
      4.18039      4.76554      3.63679         0.002256     -0.000616     -0.004939
      0.83942      8.51612      3.63429        -0.003890     -0.004671     -0.002446
      1.72386      3.80056      3.63670        -0.003898      0.000694     -0.001405
      4.52677      6.16121      1.57393         0.002942      0.001054      0.000831
     -1.16241      9.03328      1.57259         0.001040      0.000120      0.004138
      0.10014      5.69257      3.63611         0.002545     -0.000616     -0.002719
 -----------------------------------------------------------------------------------
    total drift:                               -0.003930      0.002967     -0.013859


--------------------------------------------------------------------------------------------------------



  FREE ENERGIE OF THE ION-ELECTRON SYSTEM (eV)
  ---------------------------------------------------
  free  energy   TOTEN  =      -178.99817053 eV

  energy  without entropy=     -178.90146970  energy(sigma->0) =     -178.94982012
 
 d Force =-0.1041223E-04[-0.204E-04,-0.401E-06]  d Energy = 0.7579665E-04-0.862E-04
 d Force =-0.2486965E-01[-0.251E-01,-0.246E-01]  d Ewald  = 0.6060367E+00-0.631E+00


--------------------------------------------------------------------------------------------------------


    POTLOK:  cpu time    0.0473: real time    0.0473


--------------------------------------------------------------------------------------------------------




--------------------------------------------------------------------------------------------------------


  
 reached required accuracy - stopping structural energy minimisation
     LOOP+:  cpu time   15.2826: real time   15.3032
    4ORBIT:  cpu time    0.0000: real time    0.0000

 total amount of memory used by VASP MPI-rank0    48240. kBytes
=======================================================================

   base      :      30000. kBytes
   nonl-proj :       6811. kBytes
   fftplans  :       1515. kBytes
   grid      :       3171. kBytes
   one-center:        311. kBytes
   wavefun   :       6432. kBytes
 
  
  
 General timing and accounting informations for this job:
 ========================================================
  
                  Total CPU time used (sec):      618.297
                            User time (sec):      613.507
                          System time (sec):        4.790
                         Elapsed time (sec):      630.645
  
                   Maximum memory used (kb):      189844.
                   Average memory used (kb):           0.
  
                          Minor page faults:       607560
                          Major page faults:            0
                 Voluntary context switches:          629
