<?xml version="1.0" encoding="ISO-8859-1"?>
<modeling>
 <generator>
  <i name="program" type="string">vasp </i>
  <i name="version" type="string">5.4.4.18Apr17-6-g9f103f2a35  </i>
  <i name="subversion" type="string">(build Jul 11 2019 11:52:51) complex            parallel </i>
  <i name="platform" type="string">LinuxIFC </i>
  <i name="date" type="string">2023 11 29 </i>
  <i name="time" type="string">16:48:29 </i>
 </generator>
 <incar>
  <i type="int" name="ISTART">     0</i>
  <i type="string" name="PREC">normal</i>
  <i type="int" name="IBRION">     2</i>
  <i name="EDIFF">      0.00001000</i>
  <i name="EDIFFG">     -0.01000000</i>
  <i type="int" name="NSW">   500</i>
  <i type="int" name="ISIF">     3</i>
  <i name="POTIM">      0.50000000</i>
  <i type="int" name="ISMEAR">     0</i>
  <i name="SIGMA">      0.10000000</i>
  <i name="PSTRESS">      0.00000000</i>
  <i type="logical" name="LWAVE"> F  </i>
  <i type="logical" name="LCHARG"> F  </i>
  <v type="int" name="KPOINT_BSE">    -1     0     0     0</v>
 </incar>
 <structure name="primitive_cell" >
  <crystal>
   <varray name="basis" >
    <v>       6.36405900       0.00000000       0.00000000 </v>
    <v>      -1.76706500       9.56275900       0.00000000 </v>
    <v>       0.00042400      -0.00211300       4.25699500 </v>
   </varray>
   <i name="volume">    259.07204198 </i>
   <varray name="rec_basis" >
    <v>       0.15713242       0.02903589      -0.00000124 </v>
    <v>       0.00000000       0.10457233       0.00005191 </v>
    <v>       0.00000000       0.00000000       0.23490749 </v>
   </varray>
  </crystal>
  <varray name="positions" >
   <v>      -0.32076200       0.33273700       0.36303300 </v>
   <v>      -0.40031100       0.20922600      -0.09969200 </v>
   <v>       0.48758500      -0.46656000       0.36305400 </v>
   <v>       0.07398800       0.43305200       0.36284800 </v>
   <v>      -0.11513200       0.13280200       0.36347100 </v>
   <v>       0.27976300       0.23297700       0.36283900 </v>
   <v>      -0.20065100      -0.49093800      -0.09732200 </v>
   <v>      -0.00625200       0.30632900      -0.09828500 </v>
   <v>       0.39011900       0.40637900      -0.09765200 </v>
   <v>      -0.11829300      -0.36783700       0.36323700 </v>
   <v>       0.47119300       0.03218100       0.36331700 </v>
   <v>      -0.20265000       0.00696600      -0.10173500 </v>
   <v>       0.20251800       0.10875900      -0.10095600 </v>
   <v>      -0.41603600      -0.29717300      -0.09969100 </v>
   <v>       0.19211400      -0.39802200      -0.09880600 </v>
   <v>       0.39006100      -0.09811500      -0.10153800 </v>
   <v>      -0.31296400      -0.16681700       0.36352500 </v>
   <v>       0.27168400      -0.26746100       0.36343600 </v>
   <v>       0.07689400      -0.06650400       0.36352100 </v>
   <v>      -0.00102800      -0.19837200      -0.10093500 </v>
  </varray>
 </structure>
 <varray name="primitive_index" >
  <v type="int" >        1 </v>
  <v type="int" >       10 </v>
  <v type="int" >        6 </v>
  <v type="int" >        3 </v>
  <v type="int" >        8 </v>
  <v type="int" >        4 </v>
  <v type="int" >       15 </v>
  <v type="int" >       14 </v>
  <v type="int" >       17 </v>
  <v type="int" >       18 </v>
  <v type="int" >        5 </v>
  <v type="int" >       12 </v>
  <v type="int" >        9 </v>
  <v type="int" >       11 </v>
  <v type="int" >       20 </v>
  <v type="int" >       16 </v>
  <v type="int" >        2 </v>
  <v type="int" >        7 </v>
  <v type="int" >       19 </v>
  <v type="int" >       13 </v>
 </varray>
 <kpoints>
  <generation param="Gamma">
   <v type="int" name="divisions">       2        2        3 </v>
   <v name="usershift">      0.00000000       0.00000000       0.00000000 </v>
   <v name="genvec1">      0.50000000       0.00000000      -0.00000000 </v>
   <v name="genvec2">      0.00000000       0.50000000      -0.00000000 </v>
   <v name="genvec3">      0.00000000       0.00000000       0.33333333 </v>
   <v name="shift">      0.00000000       0.00000000       0.00000000 </v>
  </generation>
  <varray name="kpointlist" >
   <v>       0.00000000       0.00000000       0.00000000 </v>
   <v>       0.50000000      -0.00000000      -0.00000000 </v>
   <v>       0.00000000       0.50000000      -0.00000000 </v>
   <v>       0.50000000       0.50000000      -0.00000000 </v>
   <v>       0.00000000       0.00000000       0.33333333 </v>
   <v>       0.50000000      -0.00000000       0.33333333 </v>
   <v>       0.00000000       0.50000000       0.33333333 </v>
   <v>       0.50000000       0.50000000       0.33333333 </v>
  </varray>
  <varray name="weights" >
   <v>       0.08333333 </v>
   <v>       0.08333333 </v>
   <v>       0.08333333 </v>
   <v>       0.08333333 </v>
   <v>       0.16666667 </v>
   <v>       0.16666667 </v>
   <v>       0.16666667 </v>
   <v>       0.16666667 </v>
  </varray>
 </kpoints>
 <parameters>
  <separator name="general" >
   <i type="string" name="SYSTEM">unknown system</i>
   <i type="logical" name="LCOMPAT"> F  </i>
  </separator>
  <separator name="electronic" >
   <i type="string" name="PREC">normal</i>
   <i name="ENMAX">    267.88200000</i>
   <i name="ENAUG">    511.36800000</i>
   <i name="EDIFF">      0.00001000</i>
   <i type="int" name="IALGO">    38</i>
   <i type="int" name="IWAVPR">    11</i>
   <i type="int" name="NBANDS">    68</i>
   <i name="NELECT">    109.00000000</i>
   <i type="int" name="TURBO">     0</i>
   <i type="int" name="IRESTART">     0</i>
   <i type="int" name="NREBOOT">     0</i>
   <i type="int" name="NMIN">     0</i>
   <i name="EREF">      0.00000000</i>
   <separator name="electronic smearing" >
    <i type="int" name="ISMEAR">     0</i>
    <i name="SIGMA">      0.10000000</i>
    <i name="KSPACING">      0.50000000</i>
    <i type="logical" name="KGAMMA"> T  </i>
   </separator>
   <separator name="electronic projectors" >
    <i type="logical" name="LREAL"> F  </i>
    <v name="ROPT">      0.00000000      0.00000000</v>
    <i type="int" name="LMAXPAW">  -100</i>
    <i type="int" name="LMAXMIX">     2</i>
    <i type="logical" name="NLSPLINE"> F  </i>
   </separator>
   <separator name="electronic startup" >
    <i type="int" name="ISTART">     0</i>
    <i type="int" name="ICHARG">     2</i>
    <i type="int" name="INIWAV">     1</i>
   </separator>
   <separator name="electronic spin" >
    <i type="int" name="ISPIN">     1</i>
    <i type="logical" name="LNONCOLLINEAR"> F  </i>
    <v name="MAGMOM">      1.00000000      1.00000000      1.00000000      1.00000000      1.00000000      1.00000000      1.00000000      1.00000000      1.00000000      1.00000000      1.00000000      1.00000000      1.00000000      1.00000000      1.00000000      1.00000000      1.00000000      1.00000000      1.00000000      1.00000000
</v>
    <i name="NUPDOWN">     -1.00000000</i>
    <i type="logical" name="LSORBIT"> F  </i>
    <v name="SAXIS">      0.00000000      0.00000000      1.00000000</v>
    <i type="logical" name="LSPIRAL"> F  </i>
    <v name="QSPIRAL">      0.00000000      0.00000000      0.00000000</v>
    <i type="logical" name="LZEROZ"> F  </i>
   </separator>
   <separator name="electronic exchange-correlation" >
    <i type="logical" name="LASPH"> F  </i>
    <i type="logical" name="LMETAGGA"> F  </i>
   </separator>
   <separator name="electronic convergence" >
    <i type="int" name="NELM">    60</i>
    <i type="int" name="NELMDL">    -5</i>
    <i type="int" name="NELMIN">     2</i>
    <i name="ENINI">    267.88200000</i>
    <separator name="electronic convergence detail" >
     <i type="logical" name="LDIAG"> T  </i>
     <i type="logical" name="LSUBROT"> F  </i>
     <i name="WEIMIN">      0.00100000</i>
     <i name="EBREAK">      0.00000004</i>
     <i name="DEPER">      0.30000000</i>
     <i type="int" name="NRMM">     4</i>
     <i name="TIME">      0.40000000</i>
    </separator>
   </separator>
   <separator name="electronic mixer" >
    <i name="AMIX">      0.40000000</i>
    <i name="BMIX">      1.00000000</i>
    <i name="AMIN">      0.10000000</i>
    <i name="AMIX_MAG">      1.60000000</i>
    <i name="BMIX_MAG">      1.00000000</i>
    <separator name="electronic mixer details" >
     <i type="int" name="IMIX">     4</i>
     <i type="logical" name="MIXFIRST"> F  </i>
     <i type="int" name="MAXMIX">   -45</i>
     <i name="WC">    100.00000000</i>
     <i type="int" name="INIMIX">     1</i>
     <i type="int" name="MIXPRE">     1</i>
     <i type="int" name="MREMOVE">     5</i>
    </separator>
   </separator>
   <separator name="electronic dipolcorrection" >
    <i type="logical" name="LDIPOL"> F  </i>
    <i type="logical" name="LMONO"> F  </i>
    <i type="int" name="IDIPOL">     0</i>
    <i name="EPSILON">      1.00000000</i>
    <v name="DIPOL">   -100.00000000   -100.00000000   -100.00000000</v>
    <i name="EFIELD">      0.00000000</i>
   </separator>
  </separator>
  <separator name="grids" >
   <i type="int" name="NGX">    28</i>
   <i type="int" name="NGY">    40</i>
   <i type="int" name="NGZ">    18</i>
   <i type="int" name="NGXF">    56</i>
   <i type="int" name="NGYF">    80</i>
   <i type="int" name="NGZF">    36</i>
   <i type="logical" name="ADDGRID"> F  </i>
  </separator>
  <separator name="ionic" >
   <i type="int" name="NSW">   500</i>
   <i type="int" name="IBRION">     2</i>
   <i type="int" name="MDALGO">     0</i>
   <i type="int" name="ISIF">     3</i>
   <i name="PSTRESS">      0.00000000</i>
   <i name="EDIFFG">     -0.01000000</i>
   <i type="int" name="NFREE">     1</i>
   <i name="POTIM">      0.50000000</i>
   <i name="SMASS">     -3.00000000</i>
   <i name="SCALEE">      1.00000000</i>
  </separator>
  <separator name="ionic md" >
   <i name="TEBEG">      0.00010000</i>
   <i name="TEEND">      0.00010000</i>
   <i type="int" name="NBLOCK">     1</i>
   <i type="int" name="KBLOCK">   500</i>
   <i type="int" name="NPACO">   256</i>
   <i name="APACO">     16.00000000</i>
  </separator>
  <separator name="symmetry" >
   <i type="int" name="ISYM">     2</i>
   <i name="SYMPREC">      0.00001000</i>
  </separator>
  <separator name="dos" >
   <i type="int" name="LORBIT">     0</i>
   <v name="RWIGS">     -1.00000000     -1.00000000</v>
   <i type="int" name="NEDOS">   301</i>
   <i name="EMIN">     10.00000000</i>
   <i name="EMAX">    -10.00000000</i>
   <i name="EFERMI">      0.00000000</i>
  </separator>
  <separator name="writing" >
   <i type="int" name="NWRITE">     2</i>
   <i type="logical" name="LWAVE"> F  </i>
   <i type="logical" name="LDOWNSAMPLE"> F  </i>
   <i type="logical" name="LCHARG"> F  </i>
   <i type="logical" name="LPARD"> F  </i>
   <i type="logical" name="LVTOT"> F  </i>
   <i type="logical" name="LVHAR"> F  </i>
   <i type="logical" name="LELF"> F  </i>
   <i type="logical" name="LOPTICS"> F  </i>
   <v name="STM">      0.00000000      0.00000000      0.00000000      0.00000000      0.00000000      0.00000000      0.00000000</v>
  </separator>
  <separator name="performance" >
   <i type="int" name="NPAR">     4</i>
   <i type="int" name="NSIM">     4</i>
   <i type="int" name="NBLK">    -1</i>
   <i type="logical" name="LPLANE"> T  </i>
   <i type="logical" name="LSCALAPACK"> T  </i>
   <i type="logical" name="LSCAAWARE"> F  </i>
   <i type="logical" name="LSCALU"> F  </i>
   <i type="logical" name="LASYNC"> F  </i>
   <i type="logical" name="LORBITALREAL"> F  </i>
  </separator>
  <separator name="miscellaneous" >
   <i type="int" name="IDIOT">     3</i>
   <i type="int" name="ISPECIAL">     0</i>
   <i type="logical" name="LMUSIC"> F  </i>
   <v name="POMASS">     50.94100000     55.84700000</v>
   <v name="DARWINR">      0.00000000      0.00000000</v>
   <v name="DARWINV">      1.00000000      1.00000000</v>
   <i type="logical" name="LCORR"> T  </i>
  </separator>
  <i type="logical" name="GGA_COMPAT"> T  </i>
  <i type="logical" name="LBERRY"> F  </i>
  <i type="int" name="ICORELEVEL">     0</i>
  <i type="logical" name="LDAU"> F  </i>
  <i type="int" name="I_CONSTRAINED_M">     0</i>
  <separator name="electronic exchange-correlation" >
   <i type="string" name="GGA">--</i>
   <i type="int" name="VOSKOWN">     0</i>
   <i type="logical" name="LHFCALC"> F  </i>
   <i type="string" name="PRECFOCK"></i>
   <i type="logical" name="LSYMGRAD"> F  </i>
   <i type="logical" name="LHFONE"> F  </i>
   <i type="logical" name="LRHFCALC"> F  </i>
   <i type="logical" name="LTHOMAS"> F  </i>
   <i type="logical" name="LMODELHF"> F  </i>
   <i name="ENCUT4O">     -1.00000000</i>
   <i type="int" name="EXXOEP">     0</i>
   <i type="int" name="FOURORBIT">     0</i>
   <i name="AEXX">      0.00000000</i>
   <i name="HFALPHA">      0.00000000</i>
   <i name="MCALPHA">      0.00000000</i>
   <i name="ALDAX">      1.00000000</i>
   <i name="AGGAX">      1.00000000</i>
   <i name="ALDAC">      1.00000000</i>
   <i name="AGGAC">      1.00000000</i>
   <i type="int" name="NKREDX">     1</i>
   <i type="int" name="NKREDY">     1</i>
   <i type="int" name="NKREDZ">     1</i>
   <i type="logical" name="SHIFTRED"> F  </i>
   <i type="logical" name="ODDONLY"> F  </i>
   <i type="logical" name="EVENONLY"> F  </i>
   <i type="int" name="LMAXFOCK">     0</i>
   <i type="int" name="NMAXFOCKAE">     0</i>
   <i type="logical" name="LFOCKAEDFT"> F  </i>
   <i name="HFSCREEN">      0.00000000</i>
   <i name="HFSCREENC">      0.00000000</i>
   <i type="int" name="NBANDSGWLOW">     0</i>
  </separator>
  <separator name="vdW DFT" >
   <i type="logical" name="LUSE_VDW"> F  </i>
   <i name="Zab_VDW">     -0.84910000</i>
   <i name="PARAM1">      0.12340000</i>
   <i name="PARAM2">      1.00000000</i>
   <i name="PARAM3">      0.00000000</i>
  </separator>
  <separator name="model GW" >
   <i type="int" name="MODEL_GW">     0</i>
   <i name="MODEL_EPS0">      7.77216126</i>
   <i name="MODEL_ALPHA">      1.00000000</i>
  </separator>
  <separator name="linear response parameters" >
   <i type="logical" name="LEPSILON"> F  </i>
   <i type="logical" name="LRPA"> F  </i>
   <i type="logical" name="LNABLA"> F  </i>
   <i type="logical" name="LVEL"> F  </i>
   <i type="int" name="KINTER">     0</i>
   <i name="CSHIFT">      0.10000000</i>
   <i name="OMEGAMAX">     -1.00000000</i>
   <i name="DEG_THRESHOLD">      0.00200000</i>
   <i name="RTIME">     -0.10000000</i>
   <i name="WPLASMAI">      0.00000000</i>
   <v name="DFIELD">      0.00000000      0.00000000      0.00000000</v>
   <v name="WPLASMA">      0.00000000      0.00000000      0.00000000      0.00000000      0.00000000      0.00000000      0.00000000      0.00000000      0.00000000</v>
  </separator>
  <separator name="orbital magnetization" >
   <i type="logical" name="NUCIND"> F  </i>
   <v name="MAGPOS">      0.00000000      0.00000000      0.00000000</v>
   <i type="logical" name="LNICSALL"> T  </i>
   <i type="logical" name="ORBITALMAG"> F  </i>
   <i type="logical" name="LMAGBLOCH"> F  </i>
   <i type="logical" name="LCHIMAG"> F  </i>
   <i type="logical" name="LGAUGE"> T  </i>
   <i type="int" name="MAGATOM">     0</i>
   <v name="MAGDIPOL">      0.00000000      0.00000000      0.00000000</v>
   <v name="AVECCONST">      0.00000000      0.00000000      0.00000000</v>
  </separator>
  <separator name="response functions" >
   <i type="logical" name="LADDER"> F  </i>
   <i type="logical" name="LRPAFORCE"> F  </i>
   <i type="logical" name="LFXC"> F  </i>
   <i type="logical" name="LHARTREE"> T  </i>
   <i type="int" name="IBSE">     0</i>
   <v type="int" name="KPOINT">    -1     0     0     0</v>
   <i type="logical" name="LTCTE"> F  </i>
   <i type="logical" name="LTETE"> F  </i>
   <i type="logical" name="LTRIPLET"> F  </i>
   <i type="logical" name="LFXCEPS"> F  </i>
   <i type="logical" name="LFXHEG"> F  </i>
   <i type="int" name="NATURALO">     2</i>
   <i type="logical" name="L2ORDER"> F  </i>
   <i type="logical" name="LMP2LT"> F  </i>
   <i type="logical" name="LUSEW"> F  </i>
   <i name="ENCUTGW">     -2.00000000</i>
   <i name="ENCUTGWSOFT">     -2.00000000</i>
   <i name="ENCUTLF">     -1.00000000</i>
   <i type="int" name="LMAXMP2">    -1</i>
   <i name="SCISSOR">      0.00000000</i>
   <i type="int" name="NOMEGA">     0</i>
   <i type="int" name="NOMEGAR">     0</i>
   <i type="int" name="NBANDSGW">    -1</i>
   <i type="int" name="NBANDSO">    -1</i>
   <i type="int" name="NBANDSV">    -1</i>
   <i type="int" name="NELM">     1</i>
   <i type="int" name="NELMHF">     1</i>
   <i type="int" name="DIM">     3</i>
   <i type="int" name="ANTIRES">     0</i>
   <i name="OMEGAMAX">    -30.00000000</i>
   <i name="OMEGAMIN">    -30.00000000</i>
   <i name="OMEGATL">   -200.00000000</i>
   <i type="int" name="OMEGAGRID">   140</i>
   <i name="CSHIFT">     -0.10000000</i>
   <i type="logical" name="SELFENERGY"> F  </i>
   <i type="logical" name="LSPECTRAL"> F  </i>
   <i type="logical" name="LSPECTRALGW"> F  </i>
   <i type="logical" name="LSINGLES"> F  </i>
   <i type="logical" name="LFERMIGW"> F  </i>
   <i type="logical" name="ODDONLYGW"> F  </i>
   <i type="logical" name="EVENONLYGW"> F  </i>
   <i type="int" name="NKREDLFX">     1</i>
   <i type="int" name="NKREDLFY">     1</i>
   <i type="int" name="NKREDLFZ">     1</i>
   <i type="int" name="MAXMEM">  2800</i>
   <i type="int" name="TELESCOPE">     0</i>
   <i type="int" name="TAUPAR">     1</i>
   <i type="int" name="OMEGAPAR">    -1</i>
   <i name="LAMBDA">      1.00000000</i>
  </separator>
  <separator name="External order field" >
   <i name="OFIELD_KAPPA">      0.00000000</i>
   <v name="OFIELD_K">      0.00000000      0.00000000      0.00000000</v>
   <i name="OFIELD_Q6_NEAR">      0.00000000</i>
   <i name="OFIELD_Q6_FAR">      0.00000000</i>
   <i name="OFIELD_A">      0.00000000</i>
  </separator>
 </parameters>
 <atominfo>
  <atoms>      20 </atoms>
  <types>       2 </types>
  <array name="atoms" >
   <dimension dim="1">ion</dimension>
   <field type="string">element</field>
   <field type="int">atomtype</field>
   <set>
    <rc><c>V </c><c>   1</c></rc>
    <rc><c>V </c><c>   1</c></rc>
    <rc><c>V </c><c>   1</c></rc>
    <rc><c>V </c><c>   1</c></rc>
    <rc><c>V </c><c>   1</c></rc>
    <rc><c>V </c><c>   1</c></rc>
    <rc><c>V </c><c>   1</c></rc>
    <rc><c>V </c><c>   1</c></rc>
    <rc><c>V </c><c>   1</c></rc>
    <rc><c>V </c><c>   1</c></rc>
    <rc><c>V </c><c>   1</c></rc>
    <rc><c>V </c><c>   1</c></rc>
    <rc><c>V </c><c>   1</c></rc>
    <rc><c>V </c><c>   1</c></rc>
    <rc><c>V </c><c>   1</c></rc>
    <rc><c>V </c><c>   1</c></rc>
    <rc><c>V </c><c>   1</c></rc>
    <rc><c>Fe</c><c>   2</c></rc>
    <rc><c>Fe</c><c>   2</c></rc>
    <rc><c>Fe</c><c>   2</c></rc>
   </set>
  </array>
  <array name="atomtypes" >
   <dimension dim="1">type</dimension>
   <field type="int">atomspertype</field>
   <field type="string">element</field>
   <field>mass</field>
   <field>valence</field>
   <field type="string">pseudopotential</field>
   <set>
    <rc><c>  17</c><c>V </c><c>     50.94100000</c><c>      5.00000000</c><c>  PAW_PBE V 08Apr2002                   </c></rc>
    <rc><c>   3</c><c>Fe</c><c>     55.84700000</c><c>      8.00000000</c><c>  PAW_PBE Fe 06Sep2000                  </c></rc>
   </set>
  </array>
 </atominfo>
 <structure name="initialpos" >
  <crystal>
   <varray name="basis" >
    <v>       6.36405900       0.00000000       0.00000000 </v>
    <v>      -1.76706500       9.56275900       0.00000000 </v>
    <v>       0.00042400      -0.00211300       4.25699500 </v>
   </varray>
   <i name="volume">    259.07204198 </i>
   <varray name="rec_basis" >
    <v>       0.15713242       0.02903589      -0.00000124 </v>
    <v>       0.00000000       0.10457233       0.00005191 </v>
    <v>       0.00000000       0.00000000       0.23490749 </v>
   </varray>
  </crystal>
  <varray name="positions" >
   <v>       0.67923800       0.33273700       0.36303300 </v>
   <v>       0.68703600       0.83318300       0.36352500 </v>
   <v>       0.07398800       0.43305200       0.36284800 </v>
   <v>       0.27976300       0.23297700       0.36283900 </v>
   <v>       0.47119300       0.03218100       0.36331700 </v>
   <v>       0.48758500       0.53344000       0.36305400 </v>
   <v>       0.27168400       0.73253900       0.36343600 </v>
   <v>       0.88486800       0.13280200       0.36347100 </v>
   <v>       0.20251800       0.10875900       0.89904400 </v>
   <v>       0.59968900       0.20922600       0.90030800 </v>
   <v>       0.58396400       0.70282700       0.90030900 </v>
   <v>       0.79735000       0.00696600       0.89826500 </v>
   <v>       0.99897200       0.80162800       0.89906500 </v>
   <v>       0.99374800       0.30632900       0.90171500 </v>
   <v>       0.79934900       0.50906200       0.90267800 </v>
   <v>       0.39006100       0.90188500       0.89846200 </v>
   <v>       0.39011900       0.40637900       0.90234800 </v>
   <v>       0.88170700       0.63216300       0.36323700 </v>
   <v>       0.07689400       0.93349600       0.36352100 </v>
   <v>       0.19211400       0.60197800       0.90119400 </v>
  </varray>
 </structure>
 <calculation>
  <scstep>
   <time name="dav">    1.64    2.02</time>
   <time name="total">    1.70    2.09</time>
   <energy>
    <i name="alphaZ">    552.45265673 </i>
    <i name="ewald">  -5263.49850562 </i>
    <i name="hartreedc">   -837.16304317 </i>
    <i name="XCdc">   -770.71889824 </i>
    <i name="pawpsdc">   5171.05454107 </i>
    <i name="pawaedc">  -4356.08836938 </i>
    <i name="eentropy">     -0.06005754 </i>
    <i name="bandstr">   1443.11776616 </i>
    <i name="atom">   4687.48422623 </i>
    <i name="e_fr_energy">    626.58031625 </i>
    <i name="e_wo_entrp">    626.64037379 </i>
    <i name="e_0_energy">    626.61034502 </i>
   </energy>
  </scstep>
  <scstep>
   <time name="dav">    1.66    1.66</time>
   <time name="total">    1.66    1.66</time>
   <energy>
    <i name="e_fr_energy">    -74.92911152 </i>
    <i name="e_wo_entrp">    -74.86807169 </i>
    <i name="e_0_energy">    -74.89859161 </i>
   </energy>
  </scstep>
  <scstep>
   <time name="dav">    2.62    3.16</time>
   <time name="total">    2.62    3.16</time>
   <energy>
    <i name="e_fr_energy">   -193.65823985 </i>
    <i name="e_wo_entrp">   -193.57583870 </i>
    <i name="e_0_energy">   -193.61703927 </i>
   </energy>
  </scstep>
  <scstep>
   <time name="dav">    1.99    2.00</time>
   <time name="total">    1.99    2.00</time>
   <energy>
    <i name="e_fr_energy">   -205.16960780 </i>
    <i name="e_wo_entrp">   -205.06200000 </i>
    <i name="e_0_energy">   -205.11580390 </i>
   </energy>
  </scstep>
  <scstep>
   <time name="dav">    2.27    2.34</time>
   <time name="total">    2.32    2.40</time>
   <energy>
    <i name="e_fr_energy">   -205.77240296 </i>
    <i name="e_wo_entrp">   -205.66111648 </i>
    <i name="e_0_energy">   -205.71675972 </i>
   </energy>
  </scstep>
  <scstep>
   <time name="dav">    2.24    2.35</time>
   <time name="total">    2.35    2.45</time>
   <energy>
    <i name="e_fr_energy">   -236.81683558 </i>
    <i name="e_wo_entrp">   -236.69970046 </i>
    <i name="e_0_energy">   -236.75826802 </i>
   </energy>
  </scstep>
  <scstep>
   <time name="dav">    2.63    3.22</time>
   <time name="total">    2.73    3.32</time>
   <energy>
    <i name="e_fr_energy">   -184.18181182 </i>
    <i name="e_wo_entrp">   -184.09001171 </i>
    <i name="e_0_energy">   -184.13591176 </i>
   </energy>
  </scstep>
  <scstep>
   <time name="dav">    2.44    2.95</time>
   <time name="total">    2.55    3.06</time>
   <energy>
    <i name="e_fr_energy">   -195.18104682 </i>
    <i name="e_wo_entrp">   -195.08600921 </i>
    <i name="e_0_energy">   -195.13352801 </i>
   </energy>
  </scstep>
  <scstep>
   <time name="dav">    2.40    2.41</time>
   <time name="total">    2.51    2.52</time>
   <energy>
    <i name="e_fr_energy">   -178.27625033 </i>
    <i name="e_wo_entrp">   -178.15591000 </i>
    <i name="e_0_energy">   -178.21608017 </i>
   </energy>
  </scstep>
  <scstep>
   <time name="dav">    2.27    2.49</time>
   <time name="total">    2.38    2.60</time>
   <energy>
    <i name="e_fr_energy">   -177.89862214 </i>
    <i name="e_wo_entrp">   -177.76133228 </i>
    <i name="e_0_energy">   -177.82997721 </i>
   </energy>
  </scstep>
  <scstep>
   <time name="dav">    2.03    2.03</time>
   <time name="total">    2.13    2.14</time>
   <energy>
    <i name="e_fr_energy">   -177.54861736 </i>
    <i name="e_wo_entrp">   -177.42095644 </i>
    <i name="e_0_energy">   -177.48478690 </i>
   </energy>
  </scstep>
  <scstep>
   <time name="dav">    2.06    2.62</time>
   <time name="total">    2.17    2.73</time>
   <energy>
    <i name="e_fr_energy">   -177.44052871 </i>
    <i name="e_wo_entrp">   -177.31094649 </i>
    <i name="e_0_energy">   -177.37573760 </i>
   </energy>
  </scstep>
  <scstep>
   <time name="dav">    2.09    2.49</time>
   <time name="total">    2.19    2.60</time>
   <energy>
    <i name="e_fr_energy">   -177.05279045 </i>
    <i name="e_wo_entrp">   -176.92439202 </i>
    <i name="e_0_energy">   -176.98859123 </i>
   </energy>
  </scstep>
  <scstep>
   <time name="dav">    2.38    2.38</time>
   <time name="total">    2.48    2.49</time>
   <energy>
    <i name="e_fr_energy">   -177.07092029 </i>
    <i name="e_wo_entrp">   -176.93107981 </i>
    <i name="e_0_energy">   -177.00100005 </i>
   </energy>
  </scstep>
  <scstep>
   <time name="dav">    2.36    2.37</time>
   <time name="total">    2.47    2.48</time>
   <energy>
    <i name="e_fr_energy">   -176.93405932 </i>
    <i name="e_wo_entrp">   -176.79604566 </i>
    <i name="e_0_energy">   -176.86505249 </i>
   </energy>
  </scstep>
  <scstep>
   <time name="dav">    2.37    2.53</time>
   <time name="total">    2.47    2.68</time>
   <energy>
    <i name="e_fr_energy">   -176.91576875 </i>
    <i name="e_wo_entrp">   -176.77785796 </i>
    <i name="e_0_energy">   -176.84681335 </i>
   </energy>
  </scstep>
  <scstep>
   <time name="dav">    2.29    2.52</time>
   <time name="total">    2.39    2.65</time>
   <energy>
    <i name="e_fr_energy">   -176.90443138 </i>
    <i name="e_wo_entrp">   -176.76666543 </i>
    <i name="e_0_energy">   -176.83554840 </i>
   </energy>
  </scstep>
  <scstep>
   <time name="dav">    2.36    2.40</time>
   <time name="total">    2.48    2.51</time>
   <energy>
    <i name="e_fr_energy">   -176.89042487 </i>
    <i name="e_wo_entrp">   -176.75210470 </i>
    <i name="e_0_energy">   -176.82126478 </i>
   </energy>
  </scstep>
  <scstep>
   <time name="dav">    2.33    2.33</time>
   <time name="total">    2.43    2.44</time>
   <energy>
    <i name="e_fr_energy">   -176.88957359 </i>
    <i name="e_wo_entrp">   -176.75047788 </i>
    <i name="e_0_energy">   -176.82002574 </i>
   </energy>
  </scstep>
  <scstep>
   <time name="dav">    2.33    2.59</time>
   <time name="total">    2.44    2.69</time>
   <energy>
    <i name="e_fr_energy">   -176.88664110 </i>
    <i name="e_wo_entrp">   -176.74833115 </i>
    <i name="e_0_energy">   -176.81748613 </i>
   </energy>
  </scstep>
  <scstep>
   <time name="dav">    2.25    2.25</time>
   <time name="total">    2.36    2.36</time>
   <energy>
    <i name="e_fr_energy">   -176.88630391 </i>
    <i name="e_wo_entrp">   -176.74804047 </i>
    <i name="e_0_energy">   -176.81717219 </i>
   </energy>
  </scstep>
  <scstep>
   <time name="dav">    2.30    2.65</time>
   <time name="total">    2.41    2.78</time>
   <energy>
    <i name="e_fr_energy">   -176.88564448 </i>
    <i name="e_wo_entrp">   -176.74730361 </i>
    <i name="e_0_energy">   -176.81647405 </i>
   </energy>
  </scstep>
  <scstep>
   <time name="dav">    2.44    2.77</time>
   <time name="total">    2.54    2.93</time>
   <energy>
    <i name="e_fr_energy">   -176.88547961 </i>
    <i name="e_wo_entrp">   -176.74714196 </i>
    <i name="e_0_energy">   -176.81631078 </i>
   </energy>
  </scstep>
  <scstep>
   <time name="dav">    2.12    2.14</time>
   <time name="total">    2.22    2.29</time>
   <energy>
    <i name="e_fr_energy">   -176.88539847 </i>
    <i name="e_wo_entrp">   -176.74710627 </i>
    <i name="e_0_energy">   -176.81625237 </i>
   </energy>
  </scstep>
  <scstep>
   <time name="dav">    2.11    2.60</time>
   <time name="total">    2.22    2.70</time>
   <energy>
    <i name="e_fr_energy">   -176.88538243 </i>
    <i name="e_wo_entrp">   -176.74705750 </i>
    <i name="e_0_energy">   -176.81621997 </i>
   </energy>
  </scstep>
  <scstep>
   <time name="dav">    1.40    1.40</time>
   <time name="total">    1.44    1.45</time>
   <energy>
    <i name="alphaZ">    552.45265673 </i>
    <i name="ewald">  -5263.49850562 </i>
    <i name="hartreedc">   -670.89423285 </i>
    <i name="XCdc">   -768.97789867 </i>
    <i name="pawpsdc">   7658.27721208 </i>
    <i name="pawaedc">  -6855.34951518 </i>
    <i name="eentropy">     -0.13835782 </i>
    <i name="bandstr">    483.75903609 </i>
    <i name="atom">   4687.48422623 </i>
    <i name="e_fr_energy">   -176.88537902 </i>
    <i name="e_wo_entrp">   -176.74702120 </i>
    <i name="e_0_energy">   -176.81620011 </i>
   </energy>
  </scstep>
  <structure>
   <crystal>
    <varray name="basis" >
     <v>       6.36405900       0.00000000       0.00000000 </v>
     <v>      -1.76706500       9.56275900       0.00000000 </v>
     <v>       0.00042400      -0.00211300       4.25699500 </v>
    </varray>
    <i name="volume">    259.07204198 </i>
    <varray name="rec_basis" >
     <v>       0.15713242       0.02903589      -0.00000124 </v>
     <v>       0.00000000       0.10457233       0.00005191 </v>
     <v>       0.00000000       0.00000000       0.23490749 </v>
    </varray>
   </crystal>
   <varray name="positions" >
    <v>       0.67923800       0.33273700       0.36303300 </v>
    <v>       0.68703600       0.83318300       0.36352500 </v>
    <v>       0.07398800       0.43305200       0.36284800 </v>
    <v>       0.27976300       0.23297700       0.36283900 </v>
    <v>       0.47119300       0.03218100       0.36331700 </v>
    <v>       0.48758500       0.53344000       0.36305400 </v>
    <v>       0.27168400       0.73253900       0.36343600 </v>
    <v>       0.88486800       0.13280200       0.36347100 </v>
    <v>       0.20251800       0.10875900       0.89904400 </v>
    <v>       0.59968900       0.20922600       0.90030800 </v>
    <v>       0.58396400       0.70282700       0.90030900 </v>
    <v>       0.79735000       0.00696600       0.89826500 </v>
    <v>       0.99897200       0.80162800       0.89906500 </v>
    <v>       0.99374800       0.30632900       0.90171500 </v>
    <v>       0.79934900       0.50906200       0.90267800 </v>
    <v>       0.39006100       0.90188500       0.89846200 </v>
    <v>       0.39011900       0.40637900       0.90234800 </v>
    <v>       0.88170700       0.63216300       0.36323700 </v>
    <v>       0.07689400       0.93349600       0.36352100 </v>
    <v>       0.19211400       0.60197800       0.90119400 </v>
   </varray>
  </structure>
  <varray name="forces" >
   <v>       0.12466099       0.93257466       1.06677290 </v>
   <v>       0.24099508       0.77699971       1.01550428 </v>
   <v>       0.23608000       1.01755822       1.19089384 </v>
   <v>       0.23635372       1.02374574       0.99213695 </v>
   <v>       0.09650833       0.36520466       0.91539408 </v>
   <v>       0.08248971       1.25468131       1.18823997 </v>
   <v>       0.38465937       0.41162384       1.07878841 </v>
   <v>       0.32594838       0.54463678       0.81840895 </v>
   <v>      -0.48417295      -1.06243575      -0.92266747 </v>
   <v>      -0.26307797      -1.16917656      -0.94931535 </v>
   <v>       0.02368572      -0.83427176      -1.12693782 </v>
   <v>      -0.49036605      -1.38675668      -0.93302536 </v>
   <v>      -0.34249973       0.08741796      -0.85488999 </v>
   <v>      -0.10217144      -0.86003480      -1.00260578 </v>
   <v>      -0.08923884      -0.40041546      -1.15544971 </v>
   <v>       0.01590353      -0.72897080      -1.05384654 </v>
   <v>      -0.26969903      -0.73833820      -1.03299370 </v>
   <v>       0.18619588       0.78933136       0.70849582 </v>
   <v>       0.46219190       0.34193626       0.74668767 </v>
   <v>      -0.37444659      -0.36531050      -0.68959114 </v>
  </varray>
  <varray name="stress" >
   <v>     -10.50001766      -7.99746359      -0.67981321 </v>
   <v>      -7.99746350     -21.89670495       3.23280995 </v>
   <v>      -0.67981302       3.23280988     -30.72253749 </v>
  </varray>
  <energy>
   <i name="e_fr_energy">   -176.88537902 </i>
   <i name="e_wo_entrp">   -176.81620011 </i>
   <i name="e_0_energy">     -0.13835782 </i>
  </energy>
  <time name="totalsc">   62.32   68.07</time>
 </calculation>
 <calculation>
  <scstep>
   <time name="dav">    1.40    1.50</time>
   <time name="total">    1.50    1.61</time>
   <energy>
    <i name="alphaZ">    566.29543005 </i>
    <i name="ewald">  -5324.10949882 </i>
    <i name="hartreedc">   -666.44575116 </i>
    <i name="XCdc">   -767.53007773 </i>
    <i name="pawpsdc">   7658.40348499 </i>
    <i name="pawaedc">  -6855.47727911 </i>
    <i name="eentropy">     -0.11453662 </i>
    <i name="bandstr">    522.87158926 </i>
    <i name="atom">   4687.48422623 </i>
    <i name="e_fr_energy">   -178.62241290 </i>
    <i name="e_wo_entrp">   -178.50787628 </i>
    <i name="e_0_energy">   -178.56514459 </i>
   </energy>
  </scstep>
  <scstep>
   <time name="dav">    2.47    2.50</time>
   <time name="total">    2.57    2.64</time>
   <energy>
    <i name="e_fr_energy">   -189.50858453 </i>
    <i name="e_wo_entrp">   -189.35689329 </i>
    <i name="e_0_energy">   -189.43273891 </i>
   </energy>
  </scstep>
  <scstep>
   <time name="dav">    2.29    2.83</time>
   <time name="total">    2.40    2.98</time>
   <energy>
    <i name="e_fr_energy">   -178.22372204 </i>
    <i name="e_wo_entrp">   -178.10971918 </i>
    <i name="e_0_energy">   -178.16672061 </i>
   </energy>
  </scstep>
  <scstep>
   <time name="dav">    2.13    2.36</time>
   <time name="total">    2.24    2.51</time>
   <energy>
    <i name="e_fr_energy">   -178.51584580 </i>
    <i name="e_wo_entrp">   -178.39278820 </i>
    <i name="e_0_energy">   -178.45431700 </i>
   </energy>
  </scstep>
  <scstep>
   <time name="dav">    2.35    2.60</time>
   <time name="total">    2.45    2.70</time>
   <energy>
    <i name="e_fr_energy">   -178.38056659 </i>
    <i name="e_wo_entrp">   -178.26190742 </i>
    <i name="e_0_energy">   -178.32123701 </i>
   </energy>
  </scstep>
  <scstep>
   <time name="dav">    2.37    2.38</time>
   <time name="total">    2.47    2.48</time>
   <energy>
    <i name="e_fr_energy">   -178.37928893 </i>
    <i name="e_wo_entrp">   -178.26325347 </i>
    <i name="e_0_energy">   -178.32127120 </i>
   </energy>
  </scstep>
  <scstep>
   <time name="dav">    2.36    2.46</time>
   <time name="total">    2.46    2.56</time>
   <energy>
    <i name="e_fr_energy">   -178.29308402 </i>
    <i name="e_wo_entrp">   -178.17446263 </i>
    <i name="e_0_energy">   -178.23377332 </i>
   </energy>
  </scstep>
  <scstep>
   <time name="dav">    2.41    2.52</time>
   <time name="total">    2.51    2.63</time>
   <energy>
    <i name="e_fr_energy">   -178.28572536 </i>
    <i name="e_wo_entrp">   -178.16720965 </i>
    <i name="e_0_energy">   -178.22646750 </i>
   </energy>
  </scstep>
  <scstep>
   <time name="dav">    2.38    2.55</time>
   <time name="total">    2.49    2.65</time>
   <energy>
    <i name="e_fr_energy">   -178.28250386 </i>
    <i name="e_wo_entrp">   -178.16389724 </i>
    <i name="e_0_energy">   -178.22320055 </i>
   </energy>
  </scstep>
  <scstep>
   <time name="dav">    2.40    2.59</time>
   <time name="total">    2.51    2.69</time>
   <energy>
    <i name="e_fr_energy">   -178.28030904 </i>
    <i name="e_wo_entrp">   -178.16160633 </i>
    <i name="e_0_energy">   -178.22095769 </i>
   </energy>
  </scstep>
  <scstep>
   <time name="dav">    2.31    2.39</time>
   <time name="total">    2.42    2.49</time>
   <energy>
    <i name="e_fr_energy">   -178.28093166 </i>
    <i name="e_wo_entrp">   -178.16238841 </i>
    <i name="e_0_energy">   -178.22166003 </i>
   </energy>
  </scstep>
  <scstep>
   <time name="dav">    2.37    3.11</time>
   <time name="total">    2.48    3.25</time>
   <energy>
    <i name="e_fr_energy">   -178.27870649 </i>
    <i name="e_wo_entrp">   -178.15995857 </i>
    <i name="e_0_energy">   -178.21933253 </i>
   </energy>
  </scstep>
  <scstep>
   <time name="dav">    2.12    2.39</time>
   <time name="total">    2.23    2.49</time>
   <energy>
    <i name="e_fr_energy">   -178.27874478 </i>
    <i name="e_wo_entrp">   -178.16015799 </i>
    <i name="e_0_energy">   -178.21945138 </i>
   </energy>
  </scstep>
  <scstep>
   <time name="dav">    2.28    2.58</time>
   <time name="total">    2.38    2.68</time>
   <energy>
    <i name="e_fr_energy">   -178.27862713 </i>
    <i name="e_wo_entrp">   -178.15993302 </i>
    <i name="e_0_energy">   -178.21928008 </i>
   </energy>
  </scstep>
  <scstep>
   <time name="dav">    2.07    2.26</time>
   <time name="total">    2.17    2.36</time>
   <energy>
    <i name="e_fr_energy">   -178.27858935 </i>
    <i name="e_wo_entrp">   -178.15991469 </i>
    <i name="e_0_energy">   -178.21925202 </i>
   </energy>
  </scstep>
  <scstep>
   <time name="dav">    2.26    2.27</time>
   <time name="total">    2.37    2.37</time>
   <energy>
    <i name="e_fr_energy">   -178.27852766 </i>
    <i name="e_wo_entrp">   -178.15985912 </i>
    <i name="e_0_energy">   -178.21919339 </i>
   </energy>
  </scstep>
  <scstep>
   <time name="dav">    1.21    1.27</time>
   <time name="total">    1.26    1.32</time>
   <energy>
    <i name="alphaZ">    566.29543005 </i>
    <i name="ewald">  -5324.10949882 </i>
    <i name="hartreedc">   -647.58774813 </i>
    <i name="XCdc">   -768.00393181 </i>
    <i name="pawpsdc">   7777.05589323 </i>
    <i name="pawaedc">  -6975.06363241 </i>
    <i name="eentropy">     -0.11869219 </i>
    <i name="bandstr">    505.76943016 </i>
    <i name="atom">   4687.48422623 </i>
    <i name="e_fr_energy">   -178.27852370 </i>
    <i name="e_wo_entrp">   -178.15983151 </i>
    <i name="e_0_energy">   -178.21917760 </i>
   </energy>
  </scstep>
  <structure>
   <crystal>
    <varray name="basis" >
     <v>       6.33799534      -0.01985170      -0.00168747 </v>
     <v>      -1.78965763       9.48659910       0.01252653 </v>
     <v>      -0.00069991       0.00327150       4.20598034 </v>
    </varray>
    <i name="volume">    252.73917161 </i>
    <varray name="rec_basis" >
     <v>       0.15787188       0.02978270       0.00000311 </v>
     <v>       0.00033034       0.10547428      -0.00008199 </v>
     <v>       0.00006236      -0.00030218       0.23775694 </v>
    </varray>
   </crystal>
   <varray name="positions" >
    <v>       0.68148925       0.33744437       0.37512227 </v>
    <v>       0.68995120       0.83710539       0.37503326 </v>
    <v>       0.07720289       0.43818841       0.37634388 </v>
    <v>       0.28298865       0.23814412       0.37408245 </v>
    <v>       0.47243609       0.03402569       0.37369076 </v>
    <v>       0.48996776       0.53977265       0.37651980 </v>
    <v>       0.27517643       0.73461828       0.37566144 </v>
    <v>       0.88810171       0.13555166       0.37274567 </v>
    <v>       0.19735956       0.10339686       0.88858781 </v>
    <v>       0.59605705       0.20332531       0.88954983 </v>
    <v>       0.58297500       0.69861540       0.88753791 </v>
    <v>       0.79169032      -0.00003231       0.88769143 </v>
    <v>       0.99649819       0.80206687       0.88937691 </v>
    <v>       0.99176884       0.30198775       0.89035291 </v>
    <v>       0.79811171       0.50703907       0.88958380 </v>
    <v>       0.38916050       0.89820482       0.88651922 </v>
    <v>       0.38704037       0.40265161       0.89064154 </v>
    <v>       0.88422408       0.63614683       0.37126607 </v>
    <v>       0.08087657       0.93522289       0.37198288 </v>
    <v>       0.18876384       0.60013334       0.89337917 </v>
   </varray>
  </structure>
  <varray name="forces" >
   <v>       0.21358588       0.73007090       0.45600451 </v>
   <v>       0.19601173       0.39081473       0.36771379 </v>
   <v>       0.22023905       0.75798981       0.47107251 </v>
   <v>       0.18280647       0.83987807       0.52795641 </v>
   <v>       0.13243302       0.43131747       0.40791322 </v>
   <v>       0.07465814       0.66107028       0.44590177 </v>
   <v>       0.19849472       0.46144679       0.40296914 </v>
   <v>       0.19240192       0.47301592       0.45947638 </v>
   <v>      -0.47705952      -0.85650793      -0.47954246 </v>
   <v>      -0.28758775      -0.85001167      -0.45618986 </v>
   <v>       0.01953605      -0.38919444      -0.39995758 </v>
   <v>      -0.28892326      -0.80919931      -0.44362330 </v>
   <v>      -0.12927442      -0.22344258      -0.43767386 </v>
   <v>      -0.20910942      -0.74480761      -0.49613530 </v>
   <v>      -0.02661958      -0.43739492      -0.45768578 </v>
   <v>      -0.03838901      -0.66668840      -0.39153919 </v>
   <v>      -0.16955117      -0.58391862      -0.45368642 </v>
   <v>       0.10843927       0.68619185       0.45735199 </v>
   <v>       0.31687253       0.49471756       0.46096895 </v>
   <v>      -0.22896464      -0.36534790      -0.44129493 </v>
  </varray>
  <varray name="stress" >
   <v>      11.58701856       2.13908321       0.56532322 </v>
   <v>       2.13908318      14.84046474       0.11264734 </v>
   <v>       0.56532318       0.11264730     -11.77913911 </v>
  </varray>
  <energy>
   <i name="e_fr_energy">   -178.27852370 </i>
   <i name="e_wo_entrp">   -178.21917760 </i>
   <i name="e_0_energy">     -0.11869219 </i>
  </energy>
  <time name="totalsc">   41.63   45.16</time>
 </calculation>
 <calculation>
  <scstep>
   <time name="dav">    1.46    1.46</time>
   <time name="total">    1.56    1.56</time>
   <energy>
    <i name="alphaZ">    577.78383287 </i>
    <i name="ewald">  -5360.13914641 </i>
    <i name="hartreedc">   -653.62065282 </i>
    <i name="XCdc">   -766.79472067 </i>
    <i name="pawpsdc">   7777.02847664 </i>
    <i name="pawaedc">  -6975.03072304 </i>
    <i name="eentropy">     -0.10566436 </i>
    <i name="bandstr">    534.56936812 </i>
    <i name="atom">   4687.48422623 </i>
    <i name="e_fr_energy">   -178.82500345 </i>
    <i name="e_wo_entrp">   -178.71933909 </i>
    <i name="e_0_energy">   -178.77217127 </i>
   </energy>
  </scstep>
  <scstep>
   <time name="dav">    2.34    2.35</time>
   <time name="total">    2.45    2.45</time>
   <energy>
    <i name="e_fr_energy">   -186.08199108 </i>
    <i name="e_wo_entrp">   -185.93604949 </i>
    <i name="e_0_energy">   -186.00902029 </i>
   </energy>
  </scstep>
  <scstep>
   <time name="dav">    2.26    2.26</time>
   <time name="total">    2.36    2.36</time>
   <energy>
    <i name="e_fr_energy">   -178.64576280 </i>
    <i name="e_wo_entrp">   -178.54270735 </i>
    <i name="e_0_energy">   -178.59423508 </i>
   </energy>
  </scstep>
  <scstep>
   <time name="dav">    2.06    2.06</time>
   <time name="total">    2.16    2.17</time>
   <energy>
    <i name="e_fr_energy">   -178.78712664 </i>
    <i name="e_wo_entrp">   -178.67629335 </i>
    <i name="e_0_energy">   -178.73170999 </i>
   </energy>
  </scstep>
  <scstep>
   <time name="dav">    2.30    2.68</time>
   <time name="total">    2.41    2.78</time>
   <energy>
    <i name="e_fr_energy">   -178.72362956 </i>
    <i name="e_wo_entrp">   -178.61639442 </i>
    <i name="e_0_energy">   -178.67001199 </i>
   </energy>
  </scstep>
  <scstep>
   <time name="dav">    2.36    2.46</time>
   <time name="total">    2.47    2.56</time>
   <energy>
    <i name="e_fr_energy">   -178.72625943 </i>
    <i name="e_wo_entrp">   -178.62146756 </i>
    <i name="e_0_energy">   -178.67386349 </i>
   </energy>
  </scstep>
  <scstep>
   <time name="dav">    2.31    2.31</time>
   <time name="total">    2.41    2.42</time>
   <energy>
    <i name="e_fr_energy">   -178.68218288 </i>
    <i name="e_wo_entrp">   -178.57531613 </i>
    <i name="e_0_energy">   -178.62874951 </i>
   </energy>
  </scstep>
  <scstep>
   <time name="dav">    2.42    2.48</time>
   <time name="total">    2.52    2.63</time>
   <energy>
    <i name="e_fr_energy">   -178.67436086 </i>
    <i name="e_wo_entrp">   -178.56782521 </i>
    <i name="e_0_energy">   -178.62109303 </i>
   </energy>
  </scstep>
  <scstep>
   <time name="dav">    2.47    2.66</time>
   <time name="total">    2.57    2.81</time>
   <energy>
    <i name="e_fr_energy">   -178.67230016 </i>
    <i name="e_wo_entrp">   -178.56568392 </i>
    <i name="e_0_energy">   -178.61899204 </i>
   </energy>
  </scstep>
  <scstep>
   <time name="dav">    2.35    2.63</time>
   <time name="total">    2.45    2.85</time>
   <energy>
    <i name="e_fr_energy">   -178.67122261 </i>
    <i name="e_wo_entrp">   -178.56439725 </i>
    <i name="e_0_energy">   -178.61780993 </i>
   </energy>
  </scstep>
  <scstep>
   <time name="dav">    2.28    2.28</time>
   <time name="total">    2.37    2.38</time>
   <energy>
    <i name="e_fr_energy">   -178.67169257 </i>
    <i name="e_wo_entrp">   -178.56484979 </i>
    <i name="e_0_energy">   -178.61827118 </i>
   </energy>
  </scstep>
  <scstep>
   <time name="dav">    2.32    2.32</time>
   <time name="total">    2.42    2.42</time>
   <energy>
    <i name="e_fr_energy">   -178.67057223 </i>
    <i name="e_wo_entrp">   -178.56374031 </i>
    <i name="e_0_energy">   -178.61715627 </i>
   </energy>
  </scstep>
  <scstep>
   <time name="dav">    2.06    2.07</time>
   <time name="total">    2.17    2.17</time>
   <energy>
    <i name="e_fr_energy">   -178.67059555 </i>
    <i name="e_wo_entrp">   -178.56380804 </i>
    <i name="e_0_energy">   -178.61720179 </i>
   </energy>
  </scstep>
  <scstep>
   <time name="dav">    1.95    1.95</time>
   <time name="total">    2.05    2.06</time>
   <energy>
    <i name="e_fr_energy">   -178.67055339 </i>
    <i name="e_wo_entrp">   -178.56371926 </i>
    <i name="e_0_energy">   -178.61713632 </i>
   </energy>
  </scstep>
  <scstep>
   <time name="dav">    1.87    1.87</time>
   <time name="total">    1.98    1.98</time>
   <energy>
    <i name="e_fr_energy">   -178.67053110 </i>
    <i name="e_wo_entrp">   -178.56368325 </i>
    <i name="e_0_energy">   -178.61710717 </i>
   </energy>
  </scstep>
  <scstep>
   <time name="dav">    1.61    1.61</time>
   <time name="total">    1.71    1.71</time>
   <energy>
    <i name="e_fr_energy">   -178.67051006 </i>
    <i name="e_wo_entrp">   -178.56365864 </i>
    <i name="e_0_energy">   -178.61708435 </i>
   </energy>
  </scstep>
  <scstep>
   <time name="dav">    1.23    1.23</time>
   <time name="total">    1.28    1.28</time>
   <energy>
    <i name="alphaZ">    577.78383287 </i>
    <i name="ewald">  -5360.13914641 </i>
    <i name="hartreedc">   -640.72651371 </i>
    <i name="XCdc">   -767.10741468 </i>
    <i name="pawpsdc">   7942.05988988 </i>
    <i name="pawaedc">  -7141.24275247 </i>
    <i name="eentropy">     -0.10685565 </i>
    <i name="bandstr">    523.32422364 </i>
    <i name="atom">   4687.48422623 </i>
    <i name="e_fr_energy">   -178.67051031 </i>
    <i name="e_wo_entrp">   -178.56365466 </i>
    <i name="e_0_energy">   -178.61708249 </i>
   </energy>
  </scstep>
  <structure>
   <crystal>
    <varray name="basis" >
     <v>       6.31704360      -0.03580984      -0.00304397 </v>
     <v>      -1.80781912       9.42537658       0.02259620 </v>
     <v>      -0.00160339       0.00759993       4.16497128 </v>
    </varray>
    <i name="volume">    247.71381568 </i>
    <varray name="rec_basis" >
     <v>       0.15847421       0.03039588       0.00000554 </v>
     <v>       0.00060200       0.10621249      -0.00019358 </v>
     <v>       0.00011255      -0.00055402       0.24009875 </v>
    </varray>
   </crystal>
   <varray name="positions" >
    <v>       0.68332972       0.34125715       0.38494770 </v>
    <v>       0.69232421       0.84028346       0.38438808 </v>
    <v>       0.07982368       0.44234983       0.38731303 </v>
    <v>       0.28561824       0.24233150       0.38321891 </v>
    <v>       0.47344887       0.03551784       0.38212700 </v>
    <v>       0.49192209       0.54490204       0.38746133 </v>
    <v>       0.27800702       0.73630347       0.38560439 </v>
    <v>       0.89072644       0.13778100       0.38028612 </v>
    <v>       0.19316805       0.09904784       0.88009174 </v>
    <v>       0.59309588       0.19854259       0.88080984 </v>
    <v>       0.58215629       0.69520681       0.87715694 </v>
    <v>       0.78708630      -0.00570797       0.87910364 </v>
    <v>       0.99450214       0.80242277       0.88149264 </v>
    <v>       0.99014985       0.29847176       0.88111833 </v>
    <v>       0.79710273       0.50540376       0.87893458 </v>
    <v>       0.38841578       0.89522661       0.87681093 </v>
    <v>       0.38453627       0.39963136       0.88112493 </v>
    <v>       0.88627581       0.63937562       0.37778988 </v>
    <v>       0.08410131       0.93662508       0.37886474 </v>
    <v>       0.18604932       0.59863648       0.88702424 </v>
   </varray>
  </structure>
  <varray name="forces" >
   <v>       0.21505056       0.41699775      -0.16465635 </v>
   <v>       0.14884268       0.00353978      -0.25736099 </v>
   <v>       0.14954835       0.40750360      -0.21431163 </v>
   <v>       0.06870236       0.47459418      -0.08396604 </v>
   <v>       0.13635392       0.37632717      -0.12823428 </v>
   <v>       0.00743612       0.07229553      -0.28478772 </v>
   <v>       0.00048414       0.46397207      -0.17825408 </v>
   <v>       0.04642460       0.26676187      -0.00008456 </v>
   <v>      -0.35428892      -0.55596723       0.03011328 </v>
   <v>      -0.22124782      -0.44877304       0.07846249 </v>
   <v>       0.03853187      -0.01644892       0.31391537 </v>
   <v>      -0.06118698      -0.15230402       0.05586748 </v>
   <v>       0.04022772      -0.50852201      -0.02723114 </v>
   <v>      -0.19728678      -0.48941282       0.12027088 </v>
   <v>       0.02239870      -0.39597579       0.20685730 </v>
   <v>      -0.10118192      -0.50520344       0.23252158 </v>
   <v>      -0.07004010      -0.25282606       0.20944677 </v>
   <v>       0.06540538       0.58437618       0.17055117 </v>
   <v>       0.16604503       0.53530473       0.05930241 </v>
   <v>      -0.10021890      -0.27623956      -0.13842193 </v>
  </varray>
  <varray name="stress" >
   <v>      44.41923158       7.87075391       1.62032006 </v>
   <v>       7.87075404      55.96329993      -3.02003123 </v>
   <v>       1.62032019      -3.02003143      22.82169029 </v>
  </varray>
  <energy>
   <i name="e_fr_energy">   -178.67051031 </i>
   <i name="e_wo_entrp">   -178.61708249 </i>
   <i name="e_0_energy">     -0.10685565 </i>
  </energy>
  <time name="totalsc">   40.09   41.33</time>
 </calculation>
 <calculation>
  <scstep>
   <time name="dav">    1.49    1.49</time>
   <time name="total">    1.59    1.60</time>
   <energy>
    <i name="alphaZ">    552.75904129 </i>
    <i name="ewald">  -5277.49794150 </i>
    <i name="hartreedc">   -636.20526011 </i>
    <i name="XCdc">   -769.65444327 </i>
    <i name="pawpsdc">   7942.07088858 </i>
    <i name="pawaedc">  -7141.25069872 </i>
    <i name="eentropy">     -0.12061922 </i>
    <i name="bandstr">    462.55410954 </i>
    <i name="atom">   4687.48422623 </i>
    <i name="e_fr_energy">   -179.86069719 </i>
    <i name="e_wo_entrp">   -179.74007797 </i>
    <i name="e_0_energy">   -179.80038758 </i>
   </energy>
  </scstep>
  <scstep>
   <time name="dav">    2.12    2.12</time>
   <time name="total">    2.22    2.22</time>
   <energy>
    <i name="e_fr_energy">   -215.18433213 </i>
    <i name="e_wo_entrp">   -215.06088810 </i>
    <i name="e_0_energy">   -215.12261012 </i>
   </energy>
  </scstep>
  <scstep>
   <time name="dav">    2.33    2.33</time>
   <time name="total">    2.43    2.43</time>
   <energy>
    <i name="e_fr_energy">   -178.01957946 </i>
    <i name="e_wo_entrp">   -177.91508133 </i>
    <i name="e_0_energy">   -177.96733040 </i>
   </energy>
  </scstep>
  <scstep>
   <time name="dav">    2.11    2.11</time>
   <time name="total">    2.21    2.21</time>
   <energy>
    <i name="e_fr_energy">   -179.27117397 </i>
    <i name="e_wo_entrp">   -179.16359455 </i>
    <i name="e_0_energy">   -179.21738426 </i>
   </energy>
  </scstep>
  <scstep>
   <time name="dav">    2.31    2.31</time>
   <time name="total">    2.41    2.41</time>
   <energy>
    <i name="e_fr_energy">   -178.87657574 </i>
    <i name="e_wo_entrp">   -178.77301948 </i>
    <i name="e_0_energy">   -178.82479761 </i>
   </energy>
  </scstep>
  <scstep>
   <time name="dav">    2.38    2.39</time>
   <time name="total">    2.48    2.49</time>
   <energy>
    <i name="e_fr_energy">   -178.95185543 </i>
    <i name="e_wo_entrp">   -178.84941218 </i>
    <i name="e_0_energy">   -178.90063381 </i>
   </energy>
  </scstep>
  <scstep>
   <time name="dav">    2.39    2.40</time>
   <time name="total">    2.50    2.50</time>
   <energy>
    <i name="e_fr_energy">   -178.82005123 </i>
    <i name="e_wo_entrp">   -178.71557997 </i>
    <i name="e_0_energy">   -178.76781560 </i>
   </energy>
  </scstep>
  <scstep>
   <time name="dav">    2.34    2.34</time>
   <time name="total">    2.44    2.45</time>
   <energy>
    <i name="e_fr_energy">   -178.81884591 </i>
    <i name="e_wo_entrp">   -178.71484984 </i>
    <i name="e_0_energy">   -178.76684788 </i>
   </energy>
  </scstep>
  <scstep>
   <time name="dav">    2.33    2.33</time>
   <time name="total">    2.43    2.43</time>
   <energy>
    <i name="e_fr_energy">   -178.80529811 </i>
    <i name="e_wo_entrp">   -178.70076372 </i>
    <i name="e_0_energy">   -178.75303091 </i>
   </energy>
  </scstep>
  <scstep>
   <time name="dav">    2.35    2.36</time>
   <time name="total">    2.46    2.46</time>
   <energy>
    <i name="e_fr_energy">   -178.80561669 </i>
    <i name="e_wo_entrp">   -178.70118558 </i>
    <i name="e_0_energy">   -178.75340114 </i>
   </energy>
  </scstep>
  <scstep>
   <time name="dav">    2.21    2.21</time>
   <time name="total">    2.31    2.31</time>
   <energy>
    <i name="e_fr_energy">   -178.80290903 </i>
    <i name="e_wo_entrp">   -178.69846548 </i>
    <i name="e_0_energy">   -178.75068725 </i>
   </energy>
  </scstep>
  <scstep>
   <time name="dav">    2.02    2.02</time>
   <time name="total">    2.11    2.12</time>
   <energy>
    <i name="e_fr_energy">   -178.80201693 </i>
    <i name="e_wo_entrp">   -178.69777160 </i>
    <i name="e_0_energy">   -178.74989427 </i>
   </energy>
  </scstep>
  <scstep>
   <time name="dav">    1.90    1.90</time>
   <time name="total">    2.01    2.01</time>
   <energy>
    <i name="e_fr_energy">   -178.80186722 </i>
    <i name="e_wo_entrp">   -178.69757076 </i>
    <i name="e_0_energy">   -178.74971899 </i>
   </energy>
  </scstep>
  <scstep>
   <time name="dav">    2.16    2.16</time>
   <time name="total">    2.26    2.27</time>
   <energy>
    <i name="e_fr_energy">   -178.80180040 </i>
    <i name="e_wo_entrp">   -178.69755578 </i>
    <i name="e_0_energy">   -178.74967809 </i>
   </energy>
  </scstep>
  <scstep>
   <time name="dav">    1.96    1.96</time>
   <time name="total">    2.07    2.07</time>
   <energy>
    <i name="e_fr_energy">   -178.80180151 </i>
    <i name="e_wo_entrp">   -178.69758313 </i>
    <i name="e_0_energy">   -178.74969232 </i>
   </energy>
  </scstep>
  <scstep>
   <time name="dav">    1.86    1.86</time>
   <time name="total">    1.96    1.96</time>
   <energy>
    <i name="e_fr_energy">   -178.80178720 </i>
    <i name="e_wo_entrp">   -178.69748309 </i>
    <i name="e_0_energy">   -178.74963515 </i>
   </energy>
  </scstep>
  <scstep>
   <time name="dav">    1.34    1.34</time>
   <time name="total">    1.38    1.38</time>
   <energy>
    <i name="alphaZ">    552.75904129 </i>
    <i name="ewald">  -5277.49794150 </i>
    <i name="hartreedc">   -660.62121526 </i>
    <i name="XCdc">   -769.09700383 </i>
    <i name="pawpsdc">   7530.91095864 </i>
    <i name="pawaedc">  -6727.21023103 </i>
    <i name="eentropy">     -0.10428320 </i>
    <i name="bandstr">    484.57465733 </i>
    <i name="atom">   4687.48422623 </i>
    <i name="e_fr_energy">   -178.80179133 </i>
    <i name="e_wo_entrp">   -178.69750813 </i>
    <i name="e_0_energy">   -178.74964973 </i>
   </energy>
  </scstep>
  <structure>
   <crystal>
    <varray name="basis" >
     <v>       6.42933307      -0.02197238       0.00081176 </v>
     <v>      -1.81818841       9.62121873       0.01348129 </v>
     <v>       0.00091879       0.00415903       4.18856198 </v>
    </varray>
    <i name="volume">    258.92844293 </i>
    <varray name="rec_basis" >
     <v>       0.15563765       0.02941201      -0.00006334 </v>
     <v>       0.00035545       0.10400425      -0.00010335 </v>
     <v>      -0.00003131      -0.00034045       0.23874577 </v>
    </varray>
   </crystal>
   <varray name="positions" >
    <v>       0.68676398       0.34542443       0.38705868 </v>
    <v>       0.69469965       0.84171141       0.38505790 </v>
    <v>       0.08300384       0.44661283       0.38926121 </v>
    <v>       0.28819908       0.24700120       0.38610745 </v>
    <v>       0.47574729       0.03841813       0.38411716 </v>
    <v>       0.49297986       0.54759295       0.38845812 </v>
    <v>       0.28004743       0.73980705       0.38758406 </v>
    <v>       0.89274965       0.14035115       0.38360586 </v>
    <v>       0.18722813       0.09381264       0.87676271 </v>
    <v>       0.58905842       0.19375894       0.87802127 </v>
    <v>       0.58210373       0.69360766       0.87679627 </v>
    <v>       0.78425069      -0.00911705       0.87607105 </v>
    <v>       0.99311780       0.79955667       0.87765913 </v>
    <v>       0.98684783       0.29400557       0.87867365 </v>
    <v>       0.79618109       0.50232853       0.87702574 </v>
    <v>       0.38632478       0.89090604       0.87566687 </v>
    <v>       0.38237859       0.39679331       0.87974748 </v>
    <v>       0.88875859       0.64427347       0.38294388 </v>
    <v>       0.08790493       0.94043226       0.38268542 </v>
    <v>       0.18349464       0.59633183       0.88236511 </v>
   </varray>
  </structure>
  <varray name="forces" >
   <v>       0.08278668       0.06447821      -0.20820823 </v>
   <v>       0.04618043      -0.14069164      -0.25777015 </v>
   <v>       0.07029506       0.12184663      -0.29593834 </v>
   <v>      -0.06885925       0.04275235      -0.19867212 </v>
   <v>       0.05775255       0.01422829      -0.19957633 </v>
   <v>       0.04179073      -0.16563327      -0.28900755 </v>
   <v>      -0.05196011       0.17092039      -0.25613202 </v>
   <v>      -0.07947206      -0.02749907      -0.15433804 </v>
   <v>      -0.06797717      -0.17746631       0.18858298 </v>
   <v>      -0.11417350       0.02635778       0.15601026 </v>
   <v>      -0.02966714       0.10629489       0.29864104 </v>
   <v>      -0.00459359       0.15128231       0.20106350 </v>
   <v>       0.05859892      -0.40512281       0.14437321 </v>
   <v>       0.02144875      -0.11031067       0.22109256 </v>
   <v>       0.02259015      -0.07274694       0.28767207 </v>
   <v>      -0.00416839      -0.07425637       0.26204709 </v>
   <v>       0.00673882       0.12411782       0.23027237 </v>
   <v>       0.03686256       0.16442657      -0.03257549 </v>
   <v>      -0.04116670       0.27618278      -0.13579771 </v>
   <v>       0.01699326      -0.08916095       0.03826089 </v>
  </varray>
  <varray name="stress" >
   <v>     -49.33172925       2.38346950       0.73652148 </v>
   <v>       2.38346944     -45.63702342      -1.74407003 </v>
   <v>       0.73652144      -1.74406983     -59.37912056 </v>
  </varray>
  <energy>
   <i name="e_fr_energy">   -178.80179133 </i>
   <i name="e_wo_entrp">   -178.74964973 </i>
   <i name="e_0_energy">     -0.10428320 </i>
  </energy>
  <time name="totalsc">   40.01   40.07</time>
 </calculation>
 <calculation>
  <scstep>
   <time name="dav">    1.48    1.48</time>
   <time name="total">    1.59    1.59</time>
   <energy>
    <i name="alphaZ">    561.77090356 </i>
    <i name="ewald">  -5307.84436199 </i>
    <i name="hartreedc">   -662.46700243 </i>
    <i name="XCdc">   -768.13421149 </i>
    <i name="pawpsdc">   7530.78698940 </i>
    <i name="pawaedc">  -6727.09203161 </i>
    <i name="eentropy">     -0.10360813 </i>
    <i name="bandstr">    506.57751936 </i>
    <i name="atom">   4687.48422623 </i>
    <i name="e_fr_energy">   -179.02157711 </i>
    <i name="e_wo_entrp">   -178.91796898 </i>
    <i name="e_0_energy">   -178.96977304 </i>
   </energy>
  </scstep>
  <scstep>
   <time name="dav">    2.39    2.39</time>
   <time name="total">    2.49    2.49</time>
   <energy>
    <i name="e_fr_energy">   -184.16138839 </i>
    <i name="e_wo_entrp">   -184.00748532 </i>
    <i name="e_0_energy">   -184.08443685 </i>
   </energy>
  </scstep>
  <scstep>
   <time name="dav">    2.35    2.35</time>
   <time name="total">    2.45    2.45</time>
   <energy>
    <i name="e_fr_energy">   -178.83190427 </i>
    <i name="e_wo_entrp">   -178.72942307 </i>
    <i name="e_0_energy">   -178.78066367 </i>
   </energy>
  </scstep>
  <scstep>
   <time name="dav">    2.26    2.27</time>
   <time name="total">    2.37    2.37</time>
   <energy>
    <i name="e_fr_energy">   -178.92333435 </i>
    <i name="e_wo_entrp">   -178.81706913 </i>
    <i name="e_0_energy">   -178.87020174 </i>
   </energy>
  </scstep>
  <scstep>
   <time name="dav">    2.11    2.12</time>
   <time name="total">    2.21    2.22</time>
   <energy>
    <i name="e_fr_energy">   -178.88757589 </i>
    <i name="e_wo_entrp">   -178.78274283 </i>
    <i name="e_0_energy">   -178.83515936 </i>
   </energy>
  </scstep>
  <scstep>
   <time name="dav">    2.26    2.26</time>
   <time name="total">    2.36    2.36</time>
   <energy>
    <i name="e_fr_energy">   -178.87978357 </i>
    <i name="e_wo_entrp">   -178.77660592 </i>
    <i name="e_0_energy">   -178.82819475 </i>
   </energy>
  </scstep>
  <scstep>
   <time name="dav">    2.38    2.38</time>
   <time name="total">    2.48    2.48</time>
   <energy>
    <i name="e_fr_energy">   -178.86841419 </i>
    <i name="e_wo_entrp">   -178.76426375 </i>
    <i name="e_0_energy">   -178.81633897 </i>
   </energy>
  </scstep>
  <scstep>
   <time name="dav">    2.43    2.44</time>
   <time name="total">    2.53    2.54</time>
   <energy>
    <i name="e_fr_energy">   -178.86507738 </i>
    <i name="e_wo_entrp">   -178.76123393 </i>
    <i name="e_0_energy">   -178.81315565 </i>
   </energy>
  </scstep>
  <scstep>
   <time name="dav">    2.30    2.30</time>
   <time name="total">    2.40    2.40</time>
   <energy>
    <i name="e_fr_energy">   -178.86493213 </i>
    <i name="e_wo_entrp">   -178.76096166 </i>
    <i name="e_0_energy">   -178.81294689 </i>
   </energy>
  </scstep>
  <scstep>
   <time name="dav">    2.24    2.25</time>
   <time name="total">    2.35    2.35</time>
   <energy>
    <i name="e_fr_energy">   -178.86487547 </i>
    <i name="e_wo_entrp">   -178.76095707 </i>
    <i name="e_0_energy">   -178.81291627 </i>
   </energy>
  </scstep>
  <scstep>
   <time name="dav">    2.38    2.38</time>
   <time name="total">    2.48    2.49</time>
   <energy>
    <i name="e_fr_energy">   -178.86494119 </i>
    <i name="e_wo_entrp">   -178.76095560 </i>
    <i name="e_0_energy">   -178.81294840 </i>
   </energy>
  </scstep>
  <scstep>
   <time name="dav">    2.39    2.39</time>
   <time name="total">    2.49    2.50</time>
   <energy>
    <i name="e_fr_energy">   -178.86454769 </i>
    <i name="e_wo_entrp">   -178.76054707 </i>
    <i name="e_0_energy">   -178.81254738 </i>
   </energy>
  </scstep>
  <scstep>
   <time name="dav">    2.10    2.10</time>
   <time name="total">    2.20    2.21</time>
   <energy>
    <i name="e_fr_energy">   -178.86455106 </i>
    <i name="e_wo_entrp">   -178.76057776 </i>
    <i name="e_0_energy">   -178.81256441 </i>
   </energy>
  </scstep>
  <scstep>
   <time name="dav">    1.54    1.54</time>
   <time name="total">    1.64    1.64</time>
   <energy>
    <i name="e_fr_energy">   -178.86453270 </i>
    <i name="e_wo_entrp">   -178.76053359 </i>
    <i name="e_0_energy">   -178.81253314 </i>
   </energy>
  </scstep>
  <scstep>
   <time name="dav">    1.26    1.27</time>
   <time name="total">    1.31    1.32</time>
   <energy>
    <i name="alphaZ">    561.77090356 </i>
    <i name="ewald">  -5307.84436199 </i>
    <i name="hartreedc">   -652.99503867 </i>
    <i name="XCdc">   -768.37235929 </i>
    <i name="pawpsdc">   7673.53821359 </i>
    <i name="pawaedc">  -6870.88708220 </i>
    <i name="eentropy">     -0.10401566 </i>
    <i name="bandstr">    498.54499148 </i>
    <i name="atom">   4687.48422623 </i>
    <i name="e_fr_energy">   -178.86452296 </i>
    <i name="e_wo_entrp">   -178.76050730 </i>
    <i name="e_0_energy">   -178.81251513 </i>
   </energy>
  </scstep>
  <structure>
   <crystal>
    <varray name="basis" >
     <v>       6.38808631      -0.02705523      -0.00060455 </v>
     <v>      -1.81437951       9.54928096       0.01682943 </v>
     <v>      -0.00000767       0.00542296       4.17989652 </v>
    </varray>
    <i name="volume">    254.77474353 </i>
    <varray name="rec_basis" >
     <v>       0.15666747       0.02976715      -0.00003833 </v>
     <v>       0.00044386       0.10480450      -0.00013597 </v>
     <v>       0.00002087      -0.00041767       0.23924091 </v>
    </varray>
   </crystal>
   <varray name="positions" >
    <v>       0.68553162       0.34392645       0.38628535 </v>
    <v>       0.69384494       0.84119878       0.38481287 </v>
    <v>       0.08186328       0.44508029       0.38854718 </v>
    <v>       0.28727544       0.24532185       0.38504941 </v>
    <v>       0.47492275       0.03737546       0.38338863 </v>
    <v>       0.49260247       0.54662508       0.38809217 </v>
    <v>       0.27931688       0.73854716       0.38685877 </v>
    <v>       0.89202403       0.13942695       0.38239186 </v>
    <v>       0.18936266       0.09569371       0.87798098 </v>
    <v>       0.59050737       0.19547849       0.87904240 </v>
    <v>       0.58212022       0.69418313       0.87692931 </v>
    <v>       0.78526814      -0.00789146       0.87718058 </v>
    <v>       0.99361244       0.80058777       0.87906124 </v>
    <v>       0.98803199       0.29561123       0.87956915 </v>
    <v>       0.79650869       0.50343488       0.87772518 </v>
    <v>       0.38707242       0.89245979       0.87608761 </v>
    <v>       0.38315252       0.39781358       0.88025222 </v>
    <v>       0.88787092       0.64251167       0.38105815 </v>
    <v>       0.08653896       0.93906383       0.38128803 </v>
    <v>       0.18441225       0.59716037       0.88406793 </v>
   </varray>
  </structure>
  <varray name="forces" >
   <v>       0.13257208       0.18729132      -0.19976351 </v>
   <v>       0.08879033      -0.08410496      -0.25889458 </v>
   <v>       0.09818534       0.22214625      -0.27276470 </v>
   <v>      -0.01598914       0.19494366      -0.16871967 </v>
   <v>       0.08764775       0.15055827      -0.17818885 </v>
   <v>       0.03553482      -0.08206191      -0.29053784 </v>
   <v>      -0.03671342       0.27838715      -0.23178982 </v>
   <v>      -0.02797583       0.07719961      -0.10324135 </v>
   <v>      -0.17243282      -0.30746487       0.13945993 </v>
   <v>      -0.15683535      -0.13842119       0.13586278 </v>
   <v>      -0.01095695       0.05625343       0.30652197 </v>
   <v>      -0.03286099       0.05232948       0.15421697 </v>
   <v>       0.05547425      -0.44242423       0.09174053 </v>
   <v>      -0.05593722      -0.25213331       0.19336749 </v>
   <v>       0.02438415      -0.18930344       0.26574456 </v>
   <v>      -0.04407238      -0.23070569       0.25513684 </v>
   <v>      -0.02750900      -0.01031287       0.22666532 </v>
   <v>       0.04853863       0.30381483       0.03337169 </v>
   <v>       0.02924128       0.37376874      -0.07597210 </v>
   <v>      -0.01908554      -0.15976028      -0.02221564 </v>
  </varray>
  <varray name="stress" >
   <v>     -16.60621887       4.41185938       1.12903060 </v>
   <v>       4.41185936      -9.95553487      -2.33675044 </v>
   <v>       1.12903061      -2.33675059     -31.14454244 </v>
  </varray>
  <energy>
   <i name="e_fr_energy">   -178.86452296 </i>
   <i name="e_wo_entrp">   -178.81251513 </i>
   <i name="e_0_energy">     -0.10401566 </i>
  </energy>
  <time name="totalsc">   36.03   36.08</time>
 </calculation>
 <calculation>
  <scstep>
   <time name="dav">    1.40    1.41</time>
   <time name="total">    1.51    1.51</time>
   <energy>
    <i name="alphaZ">    567.83167905 </i>
    <i name="ewald">  -5325.04214712 </i>
    <i name="hartreedc">   -657.46967748 </i>
    <i name="XCdc">   -767.71518845 </i>
    <i name="pawpsdc">   7673.52317696 </i>
    <i name="pawaedc">  -6870.85799373 </i>
    <i name="eentropy">     -0.09628800 </i>
    <i name="bandstr">    513.31176146 </i>
    <i name="atom">   4687.48422623 </i>
    <i name="e_fr_energy">   -179.03045107 </i>
    <i name="e_wo_entrp">   -178.93416307 </i>
    <i name="e_0_energy">   -178.98230707 </i>
   </energy>
  </scstep>
  <scstep>
   <time name="dav">    2.46    2.47</time>
   <time name="total">    2.57    2.57</time>
   <energy>
    <i name="e_fr_energy">   -181.34794128 </i>
    <i name="e_wo_entrp">   -181.22243214 </i>
    <i name="e_0_energy">   -181.28518671 </i>
   </energy>
  </scstep>
  <scstep>
   <time name="dav">    2.50    2.50</time>
   <time name="total">    2.60    2.60</time>
   <energy>
    <i name="e_fr_energy">   -178.96282872 </i>
    <i name="e_wo_entrp">   -178.86562704 </i>
    <i name="e_0_energy">   -178.91422788 </i>
   </energy>
  </scstep>
  <scstep>
   <time name="dav">    2.27    2.27</time>
   <time name="total">    2.37    2.38</time>
   <energy>
    <i name="e_fr_energy">   -179.02163009 </i>
    <i name="e_wo_entrp">   -178.92590217 </i>
    <i name="e_0_energy">   -178.97376613 </i>
   </energy>
  </scstep>
  <scstep>
   <time name="dav">    2.20    2.21</time>
   <time name="total">    2.30    2.31</time>
   <energy>
    <i name="e_fr_energy">   -178.99789667 </i>
    <i name="e_wo_entrp">   -178.90089711 </i>
    <i name="e_0_energy">   -178.94939689 </i>
   </energy>
  </scstep>
  <scstep>
   <time name="dav">    2.21    2.22</time>
   <time name="total">    2.32    2.32</time>
   <energy>
    <i name="e_fr_energy">   -178.98711339 </i>
    <i name="e_wo_entrp">   -178.89095850 </i>
    <i name="e_0_energy">   -178.93903595 </i>
   </energy>
  </scstep>
  <scstep>
   <time name="dav">    2.41    2.41</time>
   <time name="total">    2.51    2.51</time>
   <energy>
    <i name="e_fr_energy">   -178.98041366 </i>
    <i name="e_wo_entrp">   -178.88314183 </i>
    <i name="e_0_energy">   -178.93177775 </i>
   </energy>
  </scstep>
  <scstep>
   <time name="dav">    2.27    2.27</time>
   <time name="total">    2.37    2.37</time>
   <energy>
    <i name="e_fr_energy">   -178.97718814 </i>
    <i name="e_wo_entrp">   -178.88072954 </i>
    <i name="e_0_energy">   -178.92895884 </i>
   </energy>
  </scstep>
  <scstep>
   <time name="dav">    2.39    2.39</time>
   <time name="total">    2.49    2.50</time>
   <energy>
    <i name="e_fr_energy">   -178.97736382 </i>
    <i name="e_wo_entrp">   -178.88083793 </i>
    <i name="e_0_energy">   -178.92910088 </i>
   </energy>
  </scstep>
  <scstep>
   <time name="dav">    2.46    2.46</time>
   <time name="total">    2.56    2.56</time>
   <energy>
    <i name="e_fr_energy">   -178.97690968 </i>
    <i name="e_wo_entrp">   -178.88037552 </i>
    <i name="e_0_energy">   -178.92864260 </i>
   </energy>
  </scstep>
  <scstep>
   <time name="dav">    2.39    2.39</time>
   <time name="total">    2.49    2.49</time>
   <energy>
    <i name="e_fr_energy">   -178.97708478 </i>
    <i name="e_wo_entrp">   -178.88047735 </i>
    <i name="e_0_energy">   -178.92878107 </i>
   </energy>
  </scstep>
  <scstep>
   <time name="dav">    2.34    2.34</time>
   <time name="total">    2.44    2.45</time>
   <energy>
    <i name="e_fr_energy">   -178.97683371 </i>
    <i name="e_wo_entrp">   -178.88027455 </i>
    <i name="e_0_energy">   -178.92855413 </i>
   </energy>
  </scstep>
  <scstep>
   <time name="dav">    1.91    1.91</time>
   <time name="total">    2.01    2.02</time>
   <energy>
    <i name="e_fr_energy">   -178.97684100 </i>
    <i name="e_wo_entrp">   -178.88029445 </i>
    <i name="e_0_energy">   -178.92856773 </i>
   </energy>
  </scstep>
  <scstep>
   <time name="dav">    1.21    1.21</time>
   <time name="total">    1.26    1.26</time>
   <energy>
    <i name="alphaZ">    567.83167905 </i>
    <i name="ewald">  -5325.04214712 </i>
    <i name="hartreedc">   -650.89534253 </i>
    <i name="XCdc">   -767.87570913 </i>
    <i name="pawpsdc">   7767.09428582 </i>
    <i name="pawaedc">  -6965.13167227 </i>
    <i name="eentropy">     -0.09655481 </i>
    <i name="bandstr">    507.65440359 </i>
    <i name="atom">   4687.48422623 </i>
    <i name="e_fr_energy">   -178.97683116 </i>
    <i name="e_wo_entrp">   -178.88027635 </i>
    <i name="e_0_energy">   -178.92855376 </i>
   </energy>
  </scstep>
  <structure>
   <crystal>
    <varray name="basis" >
     <v>       6.37770140      -0.01114211       0.00355396 </v>
     <v>      -1.78756512       9.56515397       0.00383787 </v>
     <v>       0.00270094       0.00034232       4.13315644 </v>
    </varray>
    <i name="volume">    252.05539451 </i>
    <varray name="rec_basis" >
     <v>       0.15684757       0.02931219      -0.00010492 </v>
     <v>       0.00018271       0.10458030      -0.00000878 </v>
     <v>      -0.00013504      -0.00012231       0.24194594 </v>
    </varray>
   </crystal>
   <varray name="positions" >
    <v>       0.68789477       0.34615910       0.38442201 </v>
    <v>       0.69512731       0.84115950       0.38179776 </v>
    <v>       0.08392689       0.44753006       0.38572923 </v>
    <v>       0.28819400       0.24773872       0.38379948 </v>
    <v>       0.47653447       0.03903944       0.38175807 </v>
    <v>       0.49307077       0.54696318       0.38478082 </v>
    <v>       0.28003970       0.74107908       0.38455719 </v>
    <v>       0.89250255       0.14059310       0.38208292 </v>
    <v>       0.18576186       0.09249748       0.87874110 </v>
    <v>       0.58784761       0.19333254       0.87991258 </v>
    <v>       0.58210341       0.69402205       0.88062649 </v>
    <v>       0.78425931      -0.00859847       0.87820341 </v>
    <v>       0.99297954       0.79735015       0.87908446 </v>
    <v>       0.98623037       0.29294090       0.88125657 </v>
    <v>       0.79614835       0.50151098       0.88046706 </v>
    <v>       0.38575239       0.88994786       0.87892259 </v>
    <v>       0.38228702       0.39693134       0.88266122 </v>
    <v>       0.88945292       0.64558707       0.38297897 </v>
    <v>       0.08845759       0.94220266       0.38145834 </v>
    <v>       0.18326916       0.59562227       0.88242872 </v>
   </varray>
  </structure>
  <varray name="forces" >
   <v>       0.02918422       0.00951133      -0.08850156 </v>
   <v>       0.00181493      -0.04380309      -0.07422995 </v>
   <v>       0.06213339       0.05247839      -0.13466162 </v>
   <v>      -0.07240773      -0.02446111      -0.08314715 </v>
   <v>       0.02834614      -0.05675017      -0.08573806 </v>
   <v>       0.02032420      -0.08501638      -0.08758067 </v>
   <v>       0.00469438       0.07406842      -0.13936027 </v>
   <v>      -0.10429488      -0.03940424      -0.07250348 </v>
   <v>      -0.00388804      -0.09493286       0.10836132 </v>
   <v>      -0.05917290       0.11172055       0.07481195 </v>
   <v>       0.00527091       0.02220059       0.08844027 </v>
   <v>       0.00140234       0.08173137       0.10204604 </v>
   <v>      -0.00144083      -0.25003550       0.09896295 </v>
   <v>       0.06220227      -0.02300105       0.07903777 </v>
   <v>      -0.01098056      -0.03765633       0.14009725 </v>
   <v>       0.00059718       0.02433283       0.10544849 </v>
   <v>       0.01552850       0.11780821       0.05295076 </v>
   <v>       0.05852154       0.06190477      -0.04645688 </v>
   <v>      -0.06041089       0.14853946      -0.07216088 </v>
   <v>       0.02257583      -0.04923518       0.03418370 </v>
  </varray>
  <varray name="stress" >
   <v>       3.59703911      -2.36787680      -0.87111674 </v>
   <v>      -2.36787680       0.81164008      -0.53552381 </v>
   <v>      -0.87111663      -0.53552378       0.30849244 </v>
  </varray>
  <energy>
   <i name="e_fr_energy">   -178.97683116 </i>
   <i name="e_wo_entrp">   -178.92855376 </i>
   <i name="e_0_energy">     -0.09655481 </i>
  </energy>
  <time name="totalsc">   34.49   34.55</time>
 </calculation>
 <calculation>
  <scstep>
   <time name="dav">    1.42    1.42</time>
   <time name="total">    1.52    1.52</time>
   <energy>
    <i name="alphaZ">    568.66794447 </i>
    <i name="ewald">  -5327.32001177 </i>
    <i name="hartreedc">   -651.54695511 </i>
    <i name="XCdc">   -767.78688426 </i>
    <i name="pawpsdc">   7767.11719832 </i>
    <i name="pawaedc">  -6965.15011013 </i>
    <i name="eentropy">     -0.09595050 </i>
    <i name="bandstr">    509.65078990 </i>
    <i name="atom">   4687.48422623 </i>
    <i name="e_fr_energy">   -178.97975285 </i>
    <i name="e_wo_entrp">   -178.88380235 </i>
    <i name="e_0_energy">   -178.93177760 </i>
   </energy>
  </scstep>
  <scstep>
   <time name="dav">    2.41    2.41</time>
   <time name="total">    2.51    2.52</time>
   <energy>
    <i name="e_fr_energy">   -179.02218091 </i>
    <i name="e_wo_entrp">   -178.92598759 </i>
    <i name="e_0_energy">   -178.97408425 </i>
   </energy>
  </scstep>
  <scstep>
   <time name="dav">    2.39    2.40</time>
   <time name="total">    2.49    2.50</time>
   <energy>
    <i name="e_fr_energy">   -178.97880115 </i>
    <i name="e_wo_entrp">   -178.88272885 </i>
    <i name="e_0_energy">   -178.93076500 </i>
   </energy>
  </scstep>
  <scstep>
   <time name="dav">    2.02    2.03</time>
   <time name="total">    2.12    2.12</time>
   <energy>
    <i name="e_fr_energy">   -178.97973488 </i>
    <i name="e_wo_entrp">   -178.88390703 </i>
    <i name="e_0_energy">   -178.93182095 </i>
   </energy>
  </scstep>
  <scstep>
   <time name="dav">    2.34    2.34</time>
   <time name="total">    2.44    2.45</time>
   <energy>
    <i name="e_fr_energy">   -178.97915178 </i>
    <i name="e_wo_entrp">   -178.88314467 </i>
    <i name="e_0_energy">   -178.93114822 </i>
   </energy>
  </scstep>
  <scstep>
   <time name="dav">    2.44    2.45</time>
   <time name="total">    2.55    2.55</time>
   <energy>
    <i name="e_fr_energy">   -178.97923945 </i>
    <i name="e_wo_entrp">   -178.88320841 </i>
    <i name="e_0_energy">   -178.93122393 </i>
   </energy>
  </scstep>
  <scstep>
   <time name="dav">    2.42    2.43</time>
   <time name="total">    2.52    2.53</time>
   <energy>
    <i name="e_fr_energy">   -178.97904260 </i>
    <i name="e_wo_entrp">   -178.88298449 </i>
    <i name="e_0_energy">   -178.93101355 </i>
   </energy>
  </scstep>
  <scstep>
   <time name="dav">    2.23    2.23</time>
   <time name="total">    2.33    2.34</time>
[...]
       <r>    7.3181    0.0000 </r>
       <r>    7.4365    0.0000 </r>
       <r>    7.4872    0.0000 </r>
       <r>    7.5326    0.0000 </r>
       <r>    7.5865    0.0000 </r>
       <r>    7.6350    0.0000 </r>
       <r>    7.6860    0.0000 </r>
       <r>    7.7552    0.0000 </r>
      </set>
      <set comment="kpoint 8">
       <r>    1.4821    1.0000 </r>
       <r>    1.8498    1.0000 </r>
       <r>    2.1123    1.0000 </r>
       <r>    2.2826    1.0000 </r>
       <r>    2.8985    1.0000 </r>
       <r>    2.9318    1.0000 </r>
       <r>    3.2496    1.0000 </r>
       <r>    3.3912    1.0000 </r>
       <r>    3.4905    1.0000 </r>
       <r>    3.5773    1.0000 </r>
       <r>    3.5896    1.0000 </r>
       <r>    3.6338    1.0000 </r>
       <r>    3.7392    1.0000 </r>
       <r>    3.7705    1.0000 </r>
       <r>    3.8114    1.0000 </r>
       <r>    3.8579    1.0000 </r>
       <r>    3.8788    1.0000 </r>
       <r>    3.9960    1.0000 </r>
       <r>    4.0337    1.0000 </r>
       <r>    4.0636    1.0000 </r>
       <r>    4.1098    1.0000 </r>
       <r>    4.1467    1.0000 </r>
       <r>    4.6594    1.0000 </r>
       <r>    4.7517    1.0000 </r>
       <r>    4.7929    1.0000 </r>
       <r>    4.8338    1.0000 </r>
       <r>    4.9393    1.0000 </r>
       <r>    4.9563    1.0000 </r>
       <r>    5.1077    1.0000 </r>
       <r>    5.1589    1.0000 </r>
       <r>    5.1835    1.0000 </r>
       <r>    5.2435    1.0000 </r>
       <r>    5.3279    1.0000 </r>
       <r>    5.3722    1.0000 </r>
       <r>    5.4021    1.0000 </r>
       <r>    5.5067    1.0000 </r>
       <r>    5.5283    1.0000 </r>
       <r>    5.5583    1.0000 </r>
       <r>    5.5965    1.0000 </r>
       <r>    5.6178    1.0000 </r>
       <r>    5.7386    1.0000 </r>
       <r>    5.7466    1.0000 </r>
       <r>    5.8670    1.0000 </r>
       <r>    5.9210    1.0000 </r>
       <r>    5.9642    1.0000 </r>
       <r>    6.0128    1.0000 </r>
       <r>    6.1081    1.0000 </r>
       <r>    6.1848    1.0000 </r>
       <r>    6.1976    1.0000 </r>
       <r>    6.2455    1.0000 </r>
       <r>    6.3605    0.9961 </r>
       <r>    6.4162    0.9692 </r>
       <r>    6.4191    0.9663 </r>
       <r>    6.4646    0.8822 </r>
       <r>    6.5398    0.5486 </r>
       <r>    6.6622    0.0538 </r>
       <r>    6.7348    0.0042 </r>
       <r>    6.7845    0.0004 </r>
       <r>    6.9085    0.0000 </r>
       <r>    6.9826    0.0000 </r>
       <r>    7.1184    0.0000 </r>
       <r>    7.1558    0.0000 </r>
       <r>    7.3072    0.0000 </r>
       <r>    7.3783    0.0000 </r>
       <r>    7.4242    0.0000 </r>
       <r>    7.5045    0.0000 </r>
       <r>    7.5323    0.0000 </r>
       <r>    7.6018    0.0000 </r>
      </set>
     </set>
    </set>
   </array>
  </eigenvalues>
  <separator name="orbital magnetization" >
   <v name="MAGDIPOLOUT">      0.00000000      0.00000000      0.00000000</v>
  </separator>
  <dos>
   <i name="efermi">      6.54841994 </i>
   <total>
    <array>
     <dimension dim="1">gridpoints</dimension>
     <dimension dim="2">spin</dimension>
     <field>energy</field>
     <field>total</field>
     <field>integrated</field>
     <set>
      <set comment="spin 1">
       <r>    -1.4538     0.0000     0.0000 </r>
       <r>    -1.4195     0.0000     0.0000 </r>
       <r>    -1.3851     0.0000     0.0000 </r>
       <r>    -1.3508     0.0000     0.0000 </r>
       <r>    -1.3165     0.0000     0.0000 </r>
       <r>    -1.2821     0.0000     0.0000 </r>
       <r>    -1.2478     0.0000     0.0000 </r>
       <r>    -1.2134     0.0000     0.0000 </r>
       <r>    -1.1791     0.0000     0.0000 </r>
       <r>    -1.1447     0.0000     0.0000 </r>
       <r>    -1.1104     0.0000     0.0000 </r>
       <r>    -1.0760     0.0000     0.0000 </r>
       <r>    -1.0417     0.0000     0.0000 </r>
       <r>    -1.0073     0.0000     0.0000 </r>
       <r>    -0.9730     0.0000     0.0000 </r>
       <r>    -0.9386     0.0000     0.0000 </r>
       <r>    -0.9043     0.0000     0.0000 </r>
       <r>    -0.8699     0.0000     0.0000 </r>
       <r>    -0.8356     0.0000     0.0000 </r>
       <r>    -0.8012     0.0000     0.0000 </r>
       <r>    -0.7669     0.0000     0.0000 </r>
       <r>    -0.7325     0.0002     0.0000 </r>
       <r>    -0.6982     0.0011     0.0000 </r>
       <r>    -0.6639     0.0059     0.0002 </r>
       <r>    -0.6295     0.0243     0.0011 </r>
       <r>    -0.5952     0.0793     0.0038 </r>
       <r>    -0.5608     0.2054     0.0109 </r>
       <r>    -0.5265     0.4223     0.0254 </r>
       <r>    -0.4921     0.6888     0.0490 </r>
       <r>    -0.4578     0.8914     0.0796 </r>
       <r>    -0.4234     0.9154     0.1111 </r>
       <r>    -0.3891     0.7463     0.1367 </r>
       <r>    -0.3547     0.4854     0.1534 </r>
       <r>    -0.3204     0.2621     0.1624 </r>
       <r>    -0.2860     0.1533     0.1677 </r>
       <r>    -0.2517     0.1811     0.1739 </r>
       <r>    -0.2173     0.3411     0.1856 </r>
       <r>    -0.1830     0.5927     0.2059 </r>
       <r>    -0.1486     0.8331     0.2346 </r>
       <r>    -0.1143     0.9312     0.2665 </r>
       <r>    -0.0800     0.8261     0.2949 </r>
       <r>    -0.0456     0.5816     0.3149 </r>
       <r>    -0.0113     0.3255     0.3261 </r>
       <r>     0.0231     0.1480     0.3312 </r>
       <r>     0.0574     0.0684     0.3335 </r>
       <r>     0.0918     0.0755     0.3361 </r>
       <r>     0.1261     0.1711     0.3420 </r>
       <r>     0.1605     0.3652     0.3545 </r>
       <r>     0.1948     0.6292     0.3761 </r>
       <r>     0.2292     0.8657     0.4059 </r>
       <r>     0.2635     0.9628     0.4389 </r>
       <r>     0.2979     0.9036     0.4700 </r>
       <r>     0.3322     0.8012     0.4975 </r>
       <r>     0.3666     0.7937     0.5247 </r>
       <r>     0.4009     0.9071     0.5559 </r>
       <r>     0.4353     1.0494     0.5919 </r>
       <r>     0.4696     1.1474     0.6314 </r>
       <r>     0.5039     1.2616     0.6747 </r>
       <r>     0.5383     1.5265     0.7271 </r>
       <r>     0.5726     1.9705     0.7948 </r>
       <r>     0.6070     2.4183     0.8779 </r>
       <r>     0.6413     2.5968     0.9671 </r>
       <r>     0.6757     2.3645     1.0483 </r>
       <r>     0.7100     1.8591     1.1121 </r>
       <r>     0.7444     1.4228     1.1610 </r>
       <r>     0.7787     1.3733     1.2082 </r>
       <r>     0.8131     1.8099     1.2703 </r>
       <r>     0.8474     2.5560     1.3581 </r>
       <r>     0.8818     3.2281     1.4690 </r>
       <r>     0.9161     3.4269     1.5867 </r>
       <r>     0.9505     2.9926     1.6895 </r>
       <r>     0.9848     2.1257     1.7625 </r>
       <r>     1.0192     1.2194     1.8044 </r>
       <r>     1.0535     0.5662     1.8238 </r>
       <r>     1.0878     0.2337     1.8319 </r>
       <r>     1.1222     0.1669     1.8376 </r>
       <r>     1.1565     0.3442     1.8494 </r>
       <r>     1.1909     0.8279     1.8778 </r>
       <r>     1.2252     1.6802     1.9356 </r>
       <r>     1.2596     2.8218     2.0325 </r>
       <r>     1.2939     3.9905     2.1695 </r>
       <r>     1.3283     4.8836     2.3373 </r>
       <r>     1.3626     5.3616     2.5214 </r>
       <r>     1.3970     5.5044     2.7105 </r>
       <r>     1.4313     5.4541     2.8978 </r>
       <r>     1.4657     5.2011     3.0765 </r>
       <r>     1.5000     4.5830     3.2339 </r>
       <r>     1.5344     3.5489     3.3558 </r>
       <r>     1.5687     2.3559     3.4367 </r>
       <r>     1.6031     1.4181     3.4854 </r>
       <r>     1.6374     1.0037     3.5199 </r>
       <r>     1.6717     1.1239     3.5585 </r>
       <r>     1.7061     1.6433     3.6149 </r>
       <r>     1.7404     2.4090     3.6977 </r>
       <r>     1.7748     3.2651     3.8098 </r>
       <r>     1.8091     3.9916     3.9469 </r>
       <r>     1.8435     4.3179     4.0952 </r>
       <r>     1.8778     4.0792     4.2353 </r>
       <r>     1.9122     3.3837     4.3515 </r>
       <r>     1.9465     2.6058     4.4410 </r>
       <r>     1.9809     2.1829     4.5160 </r>
       <r>     2.0152     2.3426     4.5965 </r>
       <r>     2.0496     2.9332     4.6972 </r>
       <r>     2.0839     3.5087     4.8177 </r>
       <r>     2.1183     3.6778     4.9441 </r>
       <r>     2.1526     3.4718     5.0633 </r>
       <r>     2.1870     3.3622     5.1788 </r>
       <r>     2.2213     3.8212     5.3100 </r>
       <r>     2.2557     4.7802     5.4742 </r>
       <r>     2.2900     5.5574     5.6651 </r>
       <r>     2.3243     5.4365     5.8518 </r>
       <r>     2.3587     4.3420     6.0010 </r>
       <r>     2.3930     2.8980     6.1005 </r>
       <r>     2.4274     1.8847     6.1652 </r>
       <r>     2.4617     1.7299     6.2247 </r>
       <r>     2.4961     2.4024     6.3072 </r>
       <r>     2.5304     3.5627     6.4295 </r>
       <r>     2.5648     4.7725     6.5935 </r>
       <r>     2.5991     5.6764     6.7884 </r>
       <r>     2.6335     6.0785     6.9972 </r>
       <r>     2.6678     5.9300     7.2009 </r>
       <r>     2.7022     5.3493     7.3846 </r>
       <r>     2.7365     4.6754     7.5452 </r>
       <r>     2.7709     4.4191     7.6970 </r>
       <r>     2.8052     5.0707     7.8712 </r>
       <r>     2.8396     6.8640     8.1069 </r>
       <r>     2.8739     9.6049     8.4368 </r>
       <r>     2.9082    12.6448     8.8711 </r>
       <r>     2.9426    15.1142     9.3903 </r>
       <r>     2.9769    16.3973     9.9535 </r>
       <r>     3.0113    16.5163    10.5207 </r>
       <r>     3.0456    16.0616    11.0724 </r>
       <r>     3.0800    15.7208    11.6124 </r>
       <r>     3.1143    15.8362    12.1563 </r>
       <r>     3.1487    16.3031    12.7163 </r>
       <r>     3.1830    16.7276    13.2908 </r>
       <r>     3.2174    16.6418    13.8624 </r>
       <r>     3.2517    15.7927    14.4049 </r>
       <r>     3.2861    14.4783    14.9021 </r>
       <r>     3.3204    13.5717    15.3683 </r>
       <r>     3.3548    13.9824    15.8485 </r>
       <r>     3.3891    15.9756    16.3973 </r>
       <r>     3.4235    19.0314    17.0509 </r>
       <r>     3.4578    22.2833    17.8163 </r>
       <r>     3.4921    24.9571    18.6735 </r>
       <r>     3.5265    26.5152    19.5842 </r>
       <r>     3.5608    26.7386    20.5026 </r>
       <r>     3.5952    25.8815    21.3916 </r>
       <r>     3.6295    24.6932    22.2397 </r>
       <r>     3.6639    24.1288    23.0685 </r>
       <r>     3.6982    24.8139    23.9208 </r>
       <r>     3.7326    26.6034    24.8345 </r>
       <r>     3.7669    28.6847    25.8197 </r>
       <r>     3.8013    30.2505    26.8588 </r>
       <r>     3.8356    31.0648    27.9257 </r>
       <r>     3.8700    31.3331    29.0020 </r>
       <r>     3.9043    31.2230    30.0744 </r>
       <r>     3.9387    30.7428    31.1303 </r>
       <r>     3.9730    30.0033    32.1608 </r>
       <r>     4.0074    29.3571    33.1692 </r>
       <r>     4.0417    29.1780    34.1713 </r>
       <r>     4.0760    29.4878    35.1842 </r>
       <r>     4.1104    29.8071    36.2079 </r>
       <r>     4.1447    29.4466    37.2194 </r>
       <r>     4.1791    28.0087    38.1814 </r>
       <r>     4.2134    25.6740    39.0632 </r>
       <r>     4.2478    23.1222    39.8574 </r>
       <r>     4.2821    21.1244    40.5829 </r>
       <r>     4.3165    19.9509    41.2682 </r>
       <r>     4.3508    19.1129    41.9247 </r>
       <r>     4.3852    17.8731    42.5386 </r>
       <r>     4.4195    16.0865    43.0911 </r>
       <r>     4.4539    14.4749    43.5883 </r>
       <r>     4.4882    14.0696    44.0715 </r>
       <r>     4.5226    15.3550    44.5989 </r>
       <r>     4.5569    17.8871    45.2133 </r>
       <r>     4.5913    20.7598    45.9263 </r>
       <r>     4.6256    23.4506    46.7318 </r>
       <r>     4.6599    26.1641    47.6305 </r>
       <r>     4.6943    29.3631    48.6390 </r>
       <r>     4.7286    33.0109    49.7728 </r>
       <r>     4.7630    36.2580    51.0182 </r>
       <r>     4.7973    37.9358    52.3212 </r>
       <r>     4.8317    37.5253    53.6100 </r>
       <r>     4.8660    35.6458    54.8344 </r>
       <r>     4.9004    33.4279    55.9825 </r>
       <r>     4.9347    31.4508    57.0628 </r>
       <r>     4.9691    29.5555    58.0779 </r>
       <r>     5.0034    27.6507    59.0276 </r>
       <r>     5.0378    26.2685    59.9299 </r>
       <r>     5.0721    26.1275    60.8273 </r>
       <r>     5.1065    27.3819    61.7678 </r>
       <r>     5.1408    29.4771    62.7802 </r>
       <r>     5.1752    31.6849    63.8685 </r>
       <r>     5.2095    33.6965    65.0259 </r>
       <r>     5.2439    35.6424    66.2501 </r>
       <r>     5.2782    37.5643    67.5404 </r>
       <r>     5.3125    39.0539    68.8817 </r>
       <r>     5.3469    39.5523    70.2402 </r>
       <r>     5.3812    38.9327    71.5775 </r>
       <r>     5.4156    37.6656    72.8712 </r>
       <r>     5.4499    36.4260    74.1223 </r>
       <r>     5.4843    35.5951    75.3449 </r>
       <r>     5.5186    35.0668    76.5493 </r>
       <r>     5.5530    34.4073    77.7311 </r>
       <r>     5.5873    33.2235    78.8723 </r>
       <r>     5.6217    31.5584    79.9562 </r>
       <r>     5.6560    30.0510    80.9884 </r>
       <r>     5.6904    29.5426    82.0031 </r>
       <r>     5.7247    30.2418    83.0418 </r>
       <r>     5.7591    31.3268    84.1178 </r>
       <r>     5.7934    31.6575    85.2051 </r>
       <r>     5.8278    30.9069    86.2667 </r>
       <r>     5.8621    29.8136    87.2907 </r>
       <r>     5.8964    29.3760    88.2997 </r>
       <r>     5.9308    29.9750    89.3292 </r>
       <r>     5.9651    31.2164    90.4014 </r>
       <r>     5.9995    32.4715    91.5167 </r>
       <r>     6.0338    33.6008    92.6708 </r>
       <r>     6.0682    35.1296    93.8774 </r>
       <r>     6.1025    37.4999    95.1654 </r>
       <r>     6.1369    40.1730    96.5453 </r>
       <r>     6.1712    41.7610    97.9796 </r>
       <r>     6.2056    41.1009    99.3913 </r>
       <r>     6.2399    38.1100   100.7003 </r>
       <r>     6.2743    33.7961   101.8611 </r>
       <r>     6.3086    29.6732   102.8803 </r>
       <r>     6.3430    26.9872   103.8072 </r>
       <r>     6.3773    26.1161   104.7042 </r>
       <r>     6.4117    26.4880   105.6140 </r>
       <r>     6.4460    26.9846   106.5409 </r>
       <r>     6.4803    26.4860   107.4506 </r>
       <r>     6.5147    24.3948   108.2885 </r>
       <r>     6.5490    21.0651   109.0120 </r>
       <r>     6.5834    17.7555   109.6219 </r>
       <r>     6.6177    15.8202   110.1652 </r>
       <r>     6.6521    15.6403   110.7024 </r>
       <r>     6.6864    16.2832   111.2617 </r>
       <r>     6.7208    16.2793   111.8209 </r>
       <r>     6.7551    14.7988   112.3292 </r>
       <r>     6.7895    12.1790   112.7475 </r>
       <r>     6.8238     9.5197   113.0745 </r>
       <r>     6.8582     7.9248   113.3466 </r>
       <r>     6.8925     8.0064   113.6216 </r>
       <r>     6.9269     9.7617   113.9569 </r>
       <r>     6.9612    12.6259   114.3906 </r>
       <r>     6.9956    15.6790   114.9291 </r>
       <r>     7.0299    18.1327   115.5519 </r>
       <r>     7.0642    19.8506   116.2337 </r>
       <r>     7.0986    21.3231   116.9661 </r>
       <r>     7.1329    23.0563   117.7580 </r>
       <r>     7.1673    25.0645   118.6189 </r>
       <r>     7.2016    26.9427   119.5443 </r>
       <r>     7.2360    28.2388   120.5143 </r>
       <r>     7.2703    28.6880   121.4996 </r>
       <r>     7.3047    28.2827   122.4710 </r>
       <r>     7.3390    27.3410   123.4101 </r>
       <r>     7.3734    26.4922   124.3201 </r>
       <r>     7.4077    26.3546   125.2253 </r>
       <r>     7.4421    27.0368   126.1539 </r>
       <r>     7.4764    27.9969   127.1155 </r>
       <r>     7.5108    28.5269   128.0953 </r>
       <r>     7.5451    28.3984   129.0707 </r>
       <r>     7.5795    27.9733   130.0315 </r>
       <r>     7.6138    27.6690   130.9819 </r>
       <r>     7.6482    27.3726   131.9221 </r>
       <r>     7.6825    26.4472   132.8304 </r>
       <r>     7.7168    24.2915   133.6648 </r>
       <r>     7.7512    20.8369   134.3805 </r>
       <r>     7.7855    16.5656   134.9495 </r>
       <r>     7.8199    12.1806   135.3678 </r>
       <r>     7.8542     8.2612   135.6516 </r>
       <r>     7.8886     5.1175   135.8273 </r>
       <r>     7.9229     2.8374   135.9248 </r>
       <r>     7.9573     1.3704   135.9719 </r>
       <r>     7.9916     0.5612   135.9911 </r>
       <r>     8.0260     0.1906   135.9977 </r>
       <r>     8.0603     0.0529   135.9995 </r>
       <r>     8.0947     0.0119   135.9999 </r>
       <r>     8.1290     0.0021   136.0000 </r>
       <r>     8.1634     0.0003   136.0000 </r>
       <r>     8.1977     0.0000   136.0000 </r>
       <r>     8.2321     0.0000   136.0000 </r>
       <r>     8.2664     0.0000   136.0000 </r>
       <r>     8.3007     0.0000   136.0000 </r>
       <r>     8.3351     0.0000   136.0000 </r>
       <r>     8.3694     0.0000   136.0000 </r>
       <r>     8.4038     0.0000   136.0000 </r>
       <r>     8.4381     0.0000   136.0000 </r>
       <r>     8.4725     0.0000   136.0000 </r>
       <r>     8.5068     0.0000   136.0000 </r>
       <r>     8.5412     0.0000   136.0000 </r>
       <r>     8.5755     0.0000   136.0000 </r>
       <r>     8.6099     0.0000   136.0000 </r>
       <r>     8.6442     0.0000   136.0000 </r>
       <r>     8.6786     0.0000   136.0000 </r>
       <r>     8.7129     0.0000   136.0000 </r>
       <r>     8.7473     0.0000   136.0000 </r>
       <r>     8.7816     0.0000   136.0000 </r>
       <r>     8.8160     0.0000   136.0000 </r>
       <r>     8.8503     0.0000   136.0000 </r>
      </set>
     </set>
    </array>
   </total>
  </dos>
 </calculation>
 <structure name="finalpos" >
  <crystal>
   <varray name="basis" >
    <v>       6.39208390      -0.03078900      -0.00068682 </v>
    <v>      -1.82100026       9.57970348       0.00137947 </v>
    <v>      -0.00002829      -0.00123607       4.12172087 </v>
   </varray>
   <i name="volume">    252.15947965 </i>
   <varray name="rec_basis" >
    <v>       0.15658688       0.02976551       0.00001000 </v>
    <v>       0.00050327       0.10448303       0.00003134 </v>
    <v>       0.00002592      -0.00003001       0.24261710 </v>
   </varray>
  </crystal>
  <varray name="positions" >
   <v>       0.68853739       0.34638148       0.38206479 </v>
   <v>       0.69567238       0.84123092       0.38150280 </v>
   <v>       0.08595554       0.44831998       0.38218778 </v>
   <v>       0.28601814       0.24750921       0.38187210 </v>
   <v>       0.47556476       0.03921670       0.38130365 </v>
   <v>       0.49493754       0.54650135       0.38229527 </v>
   <v>       0.28184975       0.74250448       0.38169714 </v>
   <v>       0.88918529       0.14065491       0.38153094 </v>
   <v>       0.18354794       0.09086804       0.88156937 </v>
   <v>       0.58576520       0.19505419       0.88176744 </v>
   <v>       0.58348322       0.69419494       0.88182127 </v>
   <v>       0.78305749      -0.00792918       0.88130705 </v>
   <v>       0.99257883       0.79382714       0.88159341 </v>
   <v>       0.98686911       0.29243723       0.88203407 </v>
   <v>       0.79647961       0.50013617       0.88231304 </v>
   <v>       0.38496539       0.89032642       0.88150698 </v>
   <v>       0.38309656       0.39807569       0.88225623 </v>
   <v>       0.89223971       0.64606982       0.38179585 </v>
   <v>       0.08687712       0.94328868       0.38123562 </v>
   <v>       0.18515903       0.59494083       0.88201421 </v>
  </varray>
 </structure>
</modeling>
