unknown system                          
           1
     6.364059    0.000000    0.000000
    -1.767065    9.562759    0.000000
     0.000424   -0.002113    4.256995
   V    Fe
  17   3
Direct configuration=     1
   0.67923800  0.33273700  0.36303300
   0.68703600  0.83318300  0.36352500
   0.07398800  0.43305200  0.36284800
   0.27976300  0.23297700  0.36283900
   0.47119300  0.03218100  0.36331700
   0.48758500  0.53344000  0.36305400
   0.27168400  0.73253900  0.36343600
   0.88486800  0.13280200  0.36347100
   0.20251800  0.10875900  0.89904400
   0.59968900  0.20922600  0.90030800
   0.58396400  0.70282700  0.90030900
   0.79735000  0.00696600  0.89826500
   0.99897200  0.80162800  0.89906500
   0.99374800  0.30632900  0.90171500
   0.79934900  0.50906200  0.90267800
   0.39006100  0.90188500  0.89846200
   0.39011900  0.40637900  0.90234800
   0.88170700  0.63216300  0.36323700
   0.07689400  0.93349600  0.36352100
   0.19211400  0.60197800  0.90119400
unknown system                          
           1
     6.337995   -0.019852   -0.001687
    -1.789658    9.486599    0.012527
    -0.000700    0.003272    4.205980
   V    Fe
  17   3
Direct configuration=     2
   0.68148925  0.33744437  0.37512227
   0.68995120  0.83710539  0.37503326
   0.07720289  0.43818841  0.37634388
   0.28298865  0.23814412  0.37408245
   0.47243609  0.03402569  0.37369076
   0.48996776  0.53977265  0.37651980
   0.27517643  0.73461828  0.37566144
   0.88810171  0.13555166  0.37274567
   0.19735956  0.10339686  0.88858781
   0.59605705  0.20332531  0.88954983
   0.58297500  0.69861540  0.88753791
   0.79169032 -0.00003231  0.88769143
   0.99649819  0.80206687  0.88937691
   0.99176884  0.30198775  0.89035291
   0.79811171  0.50703907  0.88958380
   0.38916050  0.89820482  0.88651922
   0.38704037  0.40265161  0.89064154
   0.88422408  0.63614683  0.37126607
   0.08087657  0.93522289  0.37198288
   0.18876384  0.60013334  0.89337917
unknown system                          
           1
     6.317044   -0.035810   -0.003044
    -1.807819    9.425377    0.022596
    -0.001603    0.007600    4.164971
   V    Fe
  17   3
Direct configuration=     3
   0.68332972  0.34125715  0.38494770
   0.69232421  0.84028346  0.38438808
   0.07982368  0.44234983  0.38731303
   0.28561824  0.24233150  0.38321891
   0.47344887  0.03551784  0.38212700
   0.49192209  0.54490204  0.38746133
   0.27800702  0.73630347  0.38560439
   0.89072644  0.13778100  0.38028612
   0.19316805  0.09904784  0.88009174
   0.59309588  0.19854259  0.88080984
   0.58215629  0.69520681  0.87715694
   0.78708630 -0.00570797  0.87910364
   0.99450214  0.80242277  0.88149264
   0.99014985  0.29847176  0.88111833
   0.79710273  0.50540376  0.87893458
   0.38841578  0.89522661  0.87681093
   0.38453627  0.39963136  0.88112493
   0.88627581  0.63937562  0.37778988
   0.08410131  0.93662508  0.37886474
   0.18604932  0.59863648  0.88702424
unknown system                          
           1
     6.429333   -0.021972    0.000812
    -1.818188    9.621219    0.013481
     0.000919    0.004159    4.188562
   V    Fe
  17   3
Direct configuration=     4
   0.68676398  0.34542443  0.38705868
   0.69469965  0.84171141  0.38505790
   0.08300384  0.44661283  0.38926121
   0.28819908  0.24700120  0.38610745
   0.47574729  0.03841813  0.38411716
   0.49297986  0.54759295  0.38845812
   0.28004743  0.73980705  0.38758406
   0.89274965  0.14035115  0.38360586
   0.18722813  0.09381264  0.87676271
   0.58905842  0.19375894  0.87802127
   0.58210373  0.69360766  0.87679627
   0.78425069 -0.00911705  0.87607105
   0.99311780  0.79955667  0.87765913
   0.98684783  0.29400557  0.87867365
   0.79618109  0.50232853  0.87702574
   0.38632478  0.89090604  0.87566687
   0.38237859  0.39679331  0.87974748
   0.88875859  0.64427347  0.38294388
   0.08790493  0.94043226  0.38268542
   0.18349464  0.59633183  0.88236511
unknown system                          
           1
     6.388086   -0.027055   -0.000605
    -1.814380    9.549281    0.016829
    -0.000008    0.005423    4.179897
   V    Fe
  17   3
Direct configuration=     5
   0.68553162  0.34392645  0.38628535
   0.69384494  0.84119878  0.38481287
   0.08186328  0.44508029  0.38854718
   0.28727544  0.24532185  0.38504941
   0.47492275  0.03737546  0.38338863
   0.49260247  0.54662508  0.38809217
   0.27931688  0.73854716  0.38685877
   0.89202403  0.13942695  0.38239186
   0.18936266  0.09569371  0.87798098
   0.59050737  0.19547849  0.87904240
   0.58212022  0.69418313  0.87692931
   0.78526814 -0.00789146  0.87718058
   0.99361244  0.80058777  0.87906124
   0.98803199  0.29561123  0.87956915
   0.79650869  0.50343488  0.87772518
   0.38707242  0.89245979  0.87608761
   0.38315252  0.39781358  0.88025222
   0.88787092  0.64251167  0.38105815
   0.08653896  0.93906383  0.38128803
   0.18441225  0.59716037  0.88406793
unknown system                          
           1
     6.377701   -0.011142    0.003554
    -1.787565    9.565154    0.003838
     0.002701    0.000342    4.133156
   V    Fe
  17   3
Direct configuration=     6
   0.68789477  0.34615910  0.38442201
   0.69512731  0.84115950  0.38179776
   0.08392689  0.44753006  0.38572923
   0.28819400  0.24773872  0.38379948
   0.47653447  0.03903944  0.38175807
   0.49307077  0.54696318  0.38478082
   0.28003970  0.74107908  0.38455719
   0.89250255  0.14059310  0.38208292
   0.18576186  0.09249748  0.87874110
   0.58784761  0.19333254  0.87991258
   0.58210341  0.69402205  0.88062649
   0.78425931 -0.00859847  0.87820341
   0.99297954  0.79735015  0.87908446
   0.98623037  0.29294090  0.88125657
   0.79614835  0.50151098  0.88046706
   0.38575239  0.88994786  0.87892259
   0.38228702  0.39693134  0.88266122
   0.88945292  0.64558707  0.38297897
   0.08845759  0.94220266  0.38145834
   0.18326916  0.59562227  0.88242872
unknown system                          
           1
     6.376288   -0.008977    0.004120
    -1.783917    9.567314    0.002070
     0.003069   -0.000349    4.126797
   V    Fe
  17   3
Direct configuration=     7
   0.68821532  0.34646170  0.38416626
   0.69530213  0.84115365  0.38138270
   0.08420654  0.44786215  0.38534226
   0.28831764  0.24806671  0.38362841
   0.47675301  0.03926498  0.38153421
   0.49313447  0.54700875  0.38432528
   0.28013664  0.74142266  0.38424149
   0.89256700  0.14075137  0.38204084
   0.18527338  0.09206420  0.87884481
   0.58748664  0.19304172  0.88003176
   0.58210108  0.69400044  0.88113514
   0.78412231 -0.00869420  0.87834398
   0.99289539  0.79691053  0.87908636
   0.98598659  0.29257872  0.88148786
   0.79610039  0.50124993  0.88084355
   0.38557408  0.88960717  0.87931178
   0.38216960  0.39681188  0.88299243
   0.88966638  0.64600459  0.38324437
   0.08871693  0.94262858  0.38148285
   0.18311449  0.59541349  0.88220267
unknown system                          
           1
     6.391355   -0.016417    0.001337
    -1.799281    9.577927    0.000606
     0.001273   -0.001321    4.129522
   V    Fe
  17   3
Direct configuration=     8
   0.68853098  0.34655795  0.38303081
   0.69527181  0.84094086  0.38047399
   0.08492482  0.44825287  0.38358399
   0.28761916  0.24797017  0.38257963
   0.47692880  0.03893226  0.38043621
   0.49317305  0.54656478  0.38325522
   0.28035057  0.74190955  0.38239315
   0.89156546  0.14054907  0.38113150
   0.18501967  0.09140246  0.88026326
   0.58704860  0.19364912  0.88098882
   0.58221462  0.69410037  0.88222736
   0.78426481 -0.00828899  0.87964936
   0.99241489  0.79537455  0.88038601
   0.98650290  0.29236672  0.88246943
   0.79591445  0.50099833  0.88268451
   0.38557565  0.88972604  0.88067271
   0.38248009  0.39746851  0.88359411
   0.89037543  0.64645926  0.38267777
   0.08846674  0.94357214  0.38058064
   0.18319751  0.59510298  0.88259052
unknown system                          
           1
     6.394080   -0.017763    0.000834
    -1.802059    9.579846    0.000341
     0.000948   -0.001497    4.130015
   V    Fe
  17   3
Direct configuration=     9
   0.68858792  0.34657536  0.38282565
   0.69526621  0.84090240  0.38030975
   0.08505449  0.44832352  0.38326634
   0.28749302  0.24795262  0.38239000
   0.47696033  0.03887216  0.38023777
   0.49317978  0.54648456  0.38306181
   0.28038926  0.74199750  0.38205916
   0.89138460  0.14051237  0.38096703
   0.18497371  0.09128291  0.88051953
   0.58696983  0.19375880  0.88116177
   0.58223521  0.69411845  0.88242477
   0.78429075 -0.00821575  0.87988532
   0.99232767  0.79509704  0.88062073
   0.98659604  0.29232851  0.88264687
   0.79588091  0.50095288  0.88301718
   0.38557605  0.88974754  0.88091867
   0.38253640  0.39758719  0.88370293
   0.89050352  0.64654148  0.38257548
   0.08842189  0.94374254  0.38041762
   0.18321239  0.59504691  0.88266060
unknown system                          
           1
     6.385210   -0.026222   -0.002026
    -1.812292    9.558783   -0.000529
    -0.000899   -0.002217    4.118699
   V    Fe
  17   3
Direct configuration=    10
   0.68876439  0.34656001  0.38208826
   0.69532985  0.84083145  0.38018439
   0.08546877  0.44846426  0.38222267
   0.28668553  0.24764328  0.38162116
   0.47684699  0.03857165  0.37971173
   0.49342682  0.54619036  0.38265806
   0.28073355  0.74240896  0.38079614
   0.89029671  0.14033573  0.38046848
   0.18491948  0.09084263  0.88161237
   0.58673287  0.19463390  0.88189240
   0.58233422  0.69415282  0.88269903
   0.78431573 -0.00791173  0.88078577
   0.99192990  0.79390389  0.88170990
   0.98724803  0.29231396  0.88302768
   0.79570641  0.50064399  0.88416141
   0.38549838  0.89002900  0.88157877
   0.38285671  0.39820458  0.88365173
   0.89122089  0.64671174  0.38197642
   0.08791435  0.94421548  0.37991402
   0.18361042  0.59486303  0.88290860
unknown system                          
           1
     6.389346   -0.022277   -0.000692
    -1.807521    9.568605   -0.000123
    -0.000037   -0.001881    4.123976
   V    Fe
  17   3
Direct configuration=    11
   0.68868209  0.34656714  0.38243300
   0.69530022  0.84086459  0.38024299
   0.08527528  0.44839835  0.38271053
   0.28706312  0.24778821  0.38198095
   0.47690032  0.03871216  0.37995777
   0.49331180  0.54632776  0.38284680
   0.28057250  0.74221657  0.38138656
   0.89080509  0.14041875  0.38070197
   0.18494511  0.09104837  0.88110143
   0.58684253  0.19422501  0.88155076
   0.58228790  0.69413671  0.88257075
   0.78430362 -0.00805385  0.88036469
   0.99211677  0.79446162  0.88120087
   0.98694346  0.29232048  0.88284941
   0.79578807  0.50078838  0.88362647
   0.38553427  0.88989747  0.88127011
   0.38270647  0.39791592  0.88367551
   0.89088574  0.64663189  0.38225628
   0.08815099  0.94399468  0.38014962
   0.18342467  0.59494879  0.88279253
unknown system                          
           1
     6.390486   -0.025364   -0.001122
    -1.812454    9.572017   -0.000355
    -0.000315   -0.002035    4.123052
   V    Fe
  17   3
Direct configuration=    12
   0.68867493  0.34653395  0.38247798
   0.69542676  0.84096249  0.38069356
   0.08524723  0.44829641  0.38287734
   0.28677951  0.24759292  0.38193347
   0.47668325  0.03875674  0.38023577
   0.49354770  0.54637887  0.38308580
   0.28081153  0.74234548  0.38144452
   0.89044141  0.14044647  0.38088535
   0.18494047  0.09102438  0.88115927
   0.58683465  0.19462801  0.88160071
   0.58238002  0.69409453  0.88216635
   0.78419326 -0.00805295  0.88037288
   0.99206631  0.79430911  0.88132774
   0.98715595  0.29239513  0.88254040
   0.79573872  0.50056985  0.88344363
   0.38536015  0.89003589  0.88101387
   0.38277498  0.39800089  0.88324723
   0.89115987  0.64652528  0.38213101
   0.08783904  0.94380938  0.38034601
   0.18378427  0.59495619  0.88268611
unknown system                          
           1
     6.391918   -0.029243   -0.001663
    -1.818653    9.576304   -0.000647
    -0.000663   -0.002227    4.121891
   V    Fe
  17   3
Direct configuration=    13
   0.68866591  0.34649225  0.38253451
   0.69558588  0.84108554  0.38125993
   0.08521190  0.44816833  0.38308700
   0.28642297  0.24734747  0.38187372
   0.47641055  0.03881267  0.38058519
   0.49384419  0.54644316  0.38338626
   0.28111201  0.74250752  0.38151741
   0.88998445  0.14048115  0.38111581
   0.18493462  0.09099424  0.88123196
   0.58682509  0.19513427  0.88166352
   0.58249571  0.69404156  0.88165804
   0.78405459 -0.00805187  0.88038316
   0.99200278  0.79411750  0.88148719
   0.98742300  0.29248898  0.88215203
   0.79567651  0.50029531  0.88321378
   0.38514145  0.89020970  0.88069177
   0.38286111  0.39810765  0.88270891
   0.89150425  0.64639145  0.38197358
   0.08744691  0.94357648  0.38059281
   0.18423614  0.59496564  0.88255240
unknown system                          
           1
     6.391653   -0.030422   -0.000729
    -1.820341    9.577077   -0.001125
    -0.000062   -0.002318    4.120598
   V    Fe
  17   3
Direct configuration=    14
   0.68860234  0.34649792  0.38255310
   0.69563518  0.84113833  0.38122571
   0.08540696  0.44821632  0.38298765
   0.28634846  0.24731840  0.38186070
   0.47624954  0.03901409  0.38080246
   0.49411466  0.54652845  0.38305499
   0.28127034  0.74253151  0.38162843
   0.88982263  0.14052742  0.38123085
   0.18460507  0.09094518  0.88116648
   0.58669873  0.19518310  0.88160786
   0.58266233  0.69407960  0.88179862
   0.78376585 -0.00800843  0.88061835
   0.99211157  0.79402851  0.88141882
   0.98729623  0.29245846  0.88208042
   0.79585941  0.50018628  0.88294386
   0.38509519  0.89025747  0.88076941
   0.38286735  0.39809343  0.88269910
   0.89163709  0.64624001  0.38202918
   0.08729674  0.94339848  0.38078304
   0.18449431  0.59497449  0.88240998
unknown system                          
           1
     6.391376   -0.031657    0.000249
    -1.822108    9.577887   -0.001626
     0.000569   -0.002414    4.119243
   V    Fe
  17   3
Direct configuration=    15
   0.68853572  0.34650385  0.38257260
   0.69568685  0.84119363  0.38118983
   0.08561136  0.44826662  0.38288349
   0.28627038  0.24728794  0.38184707
   0.47608087  0.03922509  0.38103023
   0.49439813  0.54661783  0.38270773
   0.28143625  0.74255666  0.38174475
   0.88965308  0.14057588  0.38135146
   0.18425976  0.09089373  0.88109793
   0.58656634  0.19523424  0.88154955
   0.58283692  0.69411946  0.88194592
   0.78346329 -0.00796295  0.88086492
   0.99222555  0.79393530  0.88134712
   0.98716341  0.29242646  0.88200539
   0.79605106  0.50007207  0.88266090
   0.38504672  0.89030752  0.88085080
   0.38287390  0.39807853  0.88268880
   0.89177625  0.64608137  0.38208741
   0.08713934  0.94321197  0.38098243
   0.18476483  0.59498380  0.88226066
unknown system                          
           1
     6.393598   -0.032183    0.000359
    -1.823512    9.581474   -0.001225
     0.000641   -0.002229    4.120287
   V    Fe
  17   3
Direct configuration=    16
   0.68850976  0.34649173  0.38249230
   0.69568824  0.84122956  0.38120004
   0.08579256  0.44830969  0.38270024
   0.28621351  0.24732231  0.38186483
   0.47595127  0.03933241  0.38113935
   0.49459619  0.54664855  0.38248412
   0.28157073  0.74255886  0.38176947
   0.88951772  0.14060491  0.38143226
   0.18396279  0.09084224  0.88110619
   0.58636958  0.19522302  0.88156019
   0.58302860  0.69415904  0.88200730
   0.78326067 -0.00793060  0.88104628
   0.99233499  0.79386631  0.88133698
   0.98704531  0.29240655  0.88200031
   0.79621260  0.50003525  0.88250545
   0.38502077  0.89034692  0.88103121
   0.38290746  0.39806029  0.88264049
   0.89189367  0.64598683  0.38208198
   0.08703326  0.94313352  0.38109771
   0.18493032  0.59498163  0.88217229
unknown system                          
           1
     6.393155   -0.032078    0.000337
    -1.823232    9.580759   -0.001305
     0.000627   -0.002266    4.120079
   V    Fe
  17   3
Direct configuration=    17
   0.68851493  0.34649414  0.38250829
   0.69568796  0.84122240  0.38119800
   0.08575648  0.44830111  0.38273673
   0.28622483  0.24731547  0.38186130
   0.47597707  0.03931105  0.38111762
   0.49455675  0.54664243  0.38252865
   0.28154395  0.74255842  0.38176455
   0.88954467  0.14059914  0.38141617
   0.18402193  0.09085249  0.88110454
   0.58640876  0.19522525  0.88155807
   0.58299044  0.69415115  0.88199508
   0.78330101 -0.00793704  0.88101017
   0.99231320  0.79388005  0.88133900
   0.98706882  0.29241051  0.88200132
   0.79618043  0.50004258  0.88253641
   0.38502594  0.89033907  0.88099529
   0.38290078  0.39806392  0.88265011
   0.89187029  0.64600565  0.38208306
   0.08705438  0.94314914  0.38107475
   0.18489737  0.59498206  0.88218989
unknown system                          
           1
     6.392997   -0.032041    0.000329
    -1.823132    9.580504   -0.001333
     0.000621   -0.002279    4.120005
   V    Fe
  17   3
Direct configuration=    18
   0.68851678  0.34649500  0.38251400
   0.69568786  0.84121985  0.38119728
   0.08574359  0.44829805  0.38274977
   0.28622887  0.24731302  0.38186003
   0.47598629  0.03930341  0.38110986
   0.49454266  0.54664024  0.38254456
   0.28153439  0.74255826  0.38176279
   0.88955430  0.14059707  0.38141042
   0.18404305  0.09085616  0.88110395
   0.58642276  0.19522605  0.88155731
   0.58297680  0.69414834  0.88199071
   0.78331543 -0.00793934  0.88099726
   0.99230542  0.79388495  0.88133972
   0.98707723  0.29241193  0.88200168
   0.79616894  0.50004520  0.88254747
   0.38502778  0.89033627  0.88098245
   0.38289839  0.39806522  0.88265355
   0.89186194  0.64601238  0.38208345
   0.08706193  0.94315472  0.38106655
   0.18488559  0.59498221  0.88219617
unknown system                          
           1
     6.392672   -0.031860   -0.000135
    -1.822772    9.579847   -0.000594
     0.000324   -0.002018    4.120129
   V    Fe
  17   3
Direct configuration=    19
   0.68852942  0.34647458  0.38240878
   0.69566456  0.84122726  0.38125490
   0.08581596  0.44831020  0.38261099
   0.28619702  0.24736605  0.38188325
   0.47592523  0.03929011  0.38111203
   0.49461301  0.54661889  0.38251083
   0.28160096  0.74255048  0.38172495
   0.88948561  0.14060382  0.38143518
   0.18391991  0.09083334  0.88117106
   0.58627481  0.19519271  0.88160910
   0.58309381  0.69416850  0.88195041
   0.78325989 -0.00793537  0.88105441
   0.99236100  0.79386037  0.88138326
   0.98703119  0.29241279  0.88202719
   0.79623438  0.50006864  0.88253093
   0.38502002  0.89034835  0.88112708
   0.38294020  0.39806083  0.88258058
   0.89192334  0.64600573  0.38202993
   0.08702339  0.94317621  0.38108589
   0.18492629  0.59497554  0.88217824
unknown system                          
           1
     6.391697   -0.031318   -0.001527
    -1.821691    9.577878    0.001624
    -0.000570   -0.001234    4.120503
   V    Fe
  17   3
Direct configuration=    20
   0.68856734  0.34641331  0.38209313
   0.69559465  0.84124948  0.38142776
   0.08603305  0.44834666  0.38219468
   0.28610144  0.24752512  0.38195286
   0.47574203  0.03925019  0.38111854
   0.49482408  0.54655484  0.38240968
   0.28180069  0.74252711  0.38161144
   0.88927953  0.14062406  0.38150942
   0.18355047  0.09076488  0.88137234
   0.58583098  0.19509268  0.88176443
   0.58344486  0.69422897  0.88182954
   0.78309328 -0.00792347  0.88122583
   0.99252776  0.79378659  0.88151392
   0.98689307  0.29241536  0.88210369
   0.79643069  0.50013897  0.88248133
   0.38499676  0.89038457  0.88156094
   0.38306562  0.39804769  0.88236170
   0.89210755  0.64598580  0.38186940
   0.08690776  0.94324068  0.38114390
   0.18504838  0.59495551  0.88212447
unknown system                          
           1
     6.391937   -0.031451   -0.001185
    -1.821957    9.578361    0.001079
    -0.000350   -0.001426    4.120411
   V    Fe
  17   3
Direct configuration=    21
   0.68855804  0.34642835  0.38217061
   0.69561181  0.84124403  0.38138533
   0.08597976  0.44833770  0.38229687
   0.28612491  0.24748606  0.38193580
   0.47578701  0.03925999  0.38111695
   0.49477225  0.54657057  0.38243449
   0.28175165  0.74253285  0.38163929
   0.88933013  0.14061909  0.38149121
   0.18364118  0.09078169  0.88132295
   0.58593996  0.19511724  0.88172632
   0.58335866  0.69421412  0.88185919
   0.78313419 -0.00792639  0.88118376
   0.99248681  0.79380471  0.88148182
   0.98692699  0.29241473  0.88208492
   0.79638249  0.50012170  0.88249350
   0.38500246  0.89037568  0.88145444
   0.38303483  0.39805091  0.88241542
   0.89206232  0.64599070  0.38190879
   0.08693615  0.94322485  0.38112967
   0.18501840  0.59496043  0.88213766
unknown system                          
           1
     6.392154   -0.031571   -0.000875
    -1.822197    9.578800    0.000586
    -0.000152   -0.001601    4.120328
   V    Fe
  17   3
Direct configuration=    22
   0.68854960  0.34644198  0.38224084
   0.69562737  0.84123908  0.38134687
   0.08593145  0.44832958  0.38238950
   0.28614619  0.24745066  0.38192033
   0.47582778  0.03926887  0.38111551
   0.49472528  0.54658483  0.38245698
   0.28170720  0.74253805  0.38166453
   0.88937600  0.14061458  0.38147471
   0.18372339  0.09079693  0.88127818
   0.58603873  0.19513950  0.88169178
   0.58328054  0.69420066  0.88188607
   0.78317126 -0.00792904  0.88114563
   0.99244969  0.79382114  0.88145273
   0.98695772  0.29241415  0.88206791
   0.79633880  0.50010605  0.88250453
   0.38500763  0.89036763  0.88135790
   0.38300692  0.39805384  0.88246412
   0.89202133  0.64599513  0.38194450
   0.08696188  0.94321050  0.38111678
   0.18499123  0.59496488  0.88214961
unknown system                          
           1
     6.392081   -0.031531   -0.000979
    -1.822117    9.578653    0.000750
    -0.000218   -0.001542    4.120356
   V    Fe
  17   3
Direct configuration=    23
   0.68855242  0.34643743  0.38221739
   0.69562217  0.84124073  0.38135971
   0.08594758  0.44833230  0.38235857
   0.28613908  0.24746248  0.38192549
   0.47581417  0.03926591  0.38111599
   0.49474096  0.54658007  0.38244947
   0.28172204  0.74253631  0.38165610
   0.88936068  0.14061609  0.38148022
   0.18369594  0.09079184  0.88129313
   0.58600575  0.19513207  0.88170331
   0.58330662  0.69420515  0.88187709
   0.78315888 -0.00792816  0.88115836
   0.99246208  0.79381565  0.88146244
   0.98694746  0.29241435  0.88207359
   0.79635339  0.50011127  0.88250085
   0.38500590  0.89037032  0.88139014
   0.38301624  0.39805286  0.88244786
   0.89203502  0.64599365  0.38193258
   0.08695329  0.94321529  0.38112109
   0.18500030  0.59496340  0.88214562
unknown system                          
           1
     6.392009   -0.031491   -0.001082
    -1.822037    9.578507    0.000915
    -0.000284   -0.001484    4.120383
   V    Fe
  17   3
Direct configuration=    24
   0.68855523  0.34643289  0.38219400
   0.69561699  0.84124238  0.38137252
   0.08596367  0.44833500  0.38232772
   0.28613200  0.24747427  0.38193065
   0.47580059  0.03926295  0.38111647
   0.49475661  0.54657532  0.38244198
   0.28173685  0.74253458  0.38164769
   0.88934541  0.14061759  0.38148572
   0.18366856  0.09078677  0.88130804
   0.58597285  0.19512466  0.88171482
   0.58333264  0.69420964  0.88186814
   0.78314654 -0.00792728  0.88117106
   0.99247444  0.79381018  0.88147213
   0.98693722  0.29241454  0.88207926
   0.79636794  0.50011649  0.88249717
   0.38500418  0.89037300  0.88142229
   0.38302553  0.39805189  0.88243164
   0.89204867  0.64599217  0.38192068
   0.08694472  0.94322007  0.38112538
   0.18500935  0.59496191  0.88214164
unknown system                          
           1
     6.392042   -0.031185   -0.000910
    -1.821585    9.579029    0.001117
    -0.000173   -0.001376    4.120967
   V    Fe
  17   3
Direct configuration=    25
   0.68854746  0.34641048  0.38213767
   0.69564114  0.84123738  0.38142932
   0.08596013  0.44832845  0.38226671
   0.28608235  0.24748951  0.38190513
   0.47569775  0.03924279  0.38119809
   0.49483551  0.54654306  0.38237801
   0.28178608  0.74252146  0.38166925
   0.88927558  0.14063386  0.38150543
   0.18361595  0.09082220  0.88142197
   0.58588231  0.19509394  0.88173777
   0.58339831  0.69420322  0.88184770
   0.78310771 -0.00792810  0.88123035
   0.99251996  0.79381757  0.88152500
   0.98690752  0.29242443  0.88205956
   0.79641664  0.50012507  0.88241689
   0.38498727  0.89035269  0.88145921
   0.38305651  0.39806226  0.88235516
   0.89213197  0.64602603  0.38186625
   0.08691524  0.94324998  0.38117344
   0.18507463  0.59495272  0.88208608
unknown system                          
           1
     6.392140   -0.030267   -0.000393
    -1.820229    9.580594    0.001725
     0.000162   -0.001051    4.122716
   V    Fe
  17   3
Direct configuration=    26
   0.68852415  0.34634324  0.38196872
   0.69571360  0.84122237  0.38159968
   0.08594950  0.44830881  0.38208370
   0.28593340  0.24753523  0.38182858
   0.47538924  0.03918232  0.38144291
   0.49507224  0.54644630  0.38218614
   0.28193379  0.74248207  0.38173390
   0.88906610  0.14068270  0.38156459
   0.18345811  0.09092851  0.88176372
   0.58561067  0.19500179  0.88180663
   0.58359530  0.69418398  0.88178638
   0.78299121 -0.00793058  0.88140820
   0.99265650  0.79383973  0.88168358
   0.98681842  0.29245412  0.88200048
   0.79656273  0.50015080  0.88217608
   0.38493653  0.89029177  0.88156998
   0.38314943  0.39809339  0.88212576
   0.89238187  0.64612758  0.38170297
   0.08682677  0.94333973  0.38131760
   0.18527045  0.59492513  0.88191941
unknown system                          
           1
     6.392084   -0.030789   -0.000687
    -1.821000    9.579703    0.001379
    -0.000028   -0.001236    4.121721
   V    Fe
  17   3
Direct configuration=    27
   0.68853739  0.34638148  0.38206479
   0.69567238  0.84123092  0.38150280
   0.08595554  0.44831998  0.38218778
   0.28601814  0.24750921  0.38187210
   0.47556476  0.03921670  0.38130365
   0.49493754  0.54650135  0.38229527
   0.28184975  0.74250448  0.38169714
   0.88918529  0.14065491  0.38153094
   0.18354794  0.09086804  0.88156937
   0.58576520  0.19505419  0.88176744
   0.58348322  0.69419494  0.88182127
   0.78305749 -0.00792918  0.88130705
   0.99257883  0.79382714  0.88159341
   0.98686911  0.29243723  0.88203407
   0.79647961  0.50013617  0.88231304
   0.38496539  0.89032642  0.88150698
   0.38309656  0.39807569  0.88225623
   0.89223971  0.64606982  0.38179585
   0.08687712  0.94328868  0.38123562
   0.18515903  0.59494083  0.88201421
