  20  20   0   0
  0.1295360E+02  0.6096575E-09  0.1051755E-08  0.4040359E-09  0.5000000E-15
  1.000000000000000E-004
  CAR 
 unknown system                          
      9.07190889     -1.41943082  301      6.78153301      1.00000000
     -1.419  0.0000E+00  0.0000E+00
     -1.384  0.0000E+00  0.0000E+00
     -1.349  0.0000E+00  0.0000E+00
     -1.315  0.0000E+00  0.0000E+00
     -1.280  0.0000E+00  0.0000E+00
     -1.245  0.0000E+00  0.0000E+00
     -1.210  0.0000E+00  0.0000E+00
     -1.175  0.0000E+00  0.0000E+00
     -1.140  0.0000E+00  0.0000E+00
     -1.105  0.0000E+00  0.0000E+00
     -1.070  0.0000E+00  0.0000E+00
     -1.035  0.0000E+00  0.0000E+00
     -1.000  0.2116E-17  0.7401E-19
     -0.965  0.1153E-15  0.4108E-17
     -0.930  0.4904E-14  0.1756E-15
     -0.895  0.1639E-12  0.5908E-14
     -0.860  0.4303E-11  0.1564E-12
     -0.825  0.8874E-10  0.3260E-11
     -0.790  0.1438E-08  0.5354E-10
     -0.755  0.1831E-07  0.6937E-09
     -0.720  0.1832E-06  0.7100E-08
     -0.685  0.1441E-05  0.5750E-07
     -0.650  0.8913E-05  0.3692E-06
     -0.615  0.4335E-04  0.1885E-05
     -0.580  0.1658E-03  0.7685E-05
     -0.545  0.4990E-03  0.2514E-04
     -0.510  0.1181E-02  0.6645E-04
     -0.475  0.2200E-02  0.1434E-03
     -0.440  0.3225E-02  0.2562E-03
     -0.405  0.3719E-02  0.3862E-03
     -0.370  0.3375E-02  0.5043E-03
     -0.335  0.2410E-02  0.5886E-03
     -0.300  0.1354E-02  0.6359E-03
     -0.265  0.5988E-03  0.6569E-03
     -0.230  0.2083E-03  0.6642E-03
     -0.195  0.5698E-04  0.6662E-03
     -0.160  0.1226E-04  0.6666E-03
     -0.125  0.2075E-05  0.6667E-03
     -0.091  0.2762E-06  0.6667E-03
     -0.056  0.2889E-07  0.6667E-03
     -0.021  0.2375E-08  0.6667E-03
      0.014  0.1535E-09  0.6667E-03
      0.049  0.7792E-11  0.6667E-03
      0.084  0.3107E-12  0.6667E-03
      0.119  0.9776E-14  0.6667E-03
      0.154  0.2262E-14  0.6667E-03
      0.189  0.7166E-13  0.6667E-03
      0.224  0.1994E-11  0.6667E-03
      0.259  0.4361E-10  0.6667E-03
      0.294  0.7491E-09  0.6667E-03
      0.329  0.1011E-07  0.6667E-03
      0.364  0.1073E-06  0.6667E-03
      0.399  0.8957E-06  0.6667E-03
      0.434  0.5883E-05  0.6669E-03
      0.469  0.3045E-04  0.6680E-03
      0.504  0.1244E-03  0.6723E-03
      0.539  0.4034E-03  0.6864E-03
      0.574  0.1046E-02  0.7230E-03
      0.609  0.2206E-02  0.8002E-03
      0.644  0.3888E-02  0.9362E-03
      0.679  0.5952E-02  0.1144E-02
      0.714  0.8213E-02  0.1432E-02
      0.749  0.1034E-01  0.1793E-02
      0.784  0.1164E-01  0.2200E-02
      0.819  0.1133E-01  0.2596E-02
      0.854  0.9237E-02  0.2919E-02
      0.889  0.6202E-02  0.3136E-02
      0.924  0.3394E-02  0.3255E-02
      0.959  0.1513E-02  0.3308E-02
      0.994  0.5858E-03  0.3328E-02
      1.029  0.3559E-03  0.3341E-02
      1.064  0.7017E-03  0.3365E-02
      1.098  0.1742E-02  0.3426E-02
      1.133  0.3569E-02  0.3551E-02
      1.168  0.5807E-02  0.3754E-02
      1.203  0.7565E-02  0.4019E-02
      1.238  0.8096E-02  0.4302E-02
      1.273  0.7546E-02  0.4566E-02
      1.308  0.6764E-02  0.4802E-02
      1.343  0.6387E-02  0.5026E-02
      1.378  0.6346E-02  0.5248E-02
      1.413  0.6185E-02  0.5464E-02
      1.448  0.5534E-02  0.5657E-02
      1.483  0.4337E-02  0.5809E-02
      1.518  0.2874E-02  0.5910E-02
      1.553  0.1568E-02  0.5964E-02
      1.588  0.6957E-03  0.5989E-02
      1.623  0.2750E-03  0.5998E-02
      1.658  0.2102E-03  0.6006E-02
      1.693  0.5097E-03  0.6024E-02
      1.728  0.1359E-02  0.6071E-02
      1.763  0.2941E-02  0.6174E-02
      1.798  0.5042E-02  0.6350E-02
      1.833  0.6845E-02  0.6590E-02
      1.868  0.7386E-02  0.6848E-02
      1.903  0.6456E-02  0.7074E-02
      1.938  0.4974E-02  0.7248E-02
      1.973  0.4374E-02  0.7401E-02
      2.008  0.5606E-02  0.7597E-02
      2.043  0.8499E-02  0.7894E-02
      2.078  0.1176E-01  0.8305E-02
      2.113  0.1366E-01  0.8783E-02
      2.148  0.1321E-01  0.9245E-02
      2.183  0.1091E-01  0.9626E-02
      2.218  0.8420E-02  0.9921E-02
      2.253  0.7236E-02  0.1017E-01
      2.288  0.7520E-02  0.1044E-01
      2.322  0.8224E-02  0.1072E-01
      2.357  0.8380E-02  0.1102E-01
      2.392  0.8170E-02  0.1130E-01
      2.427  0.8531E-02  0.1160E-01
      2.462  0.9847E-02  0.1195E-01
      2.497  0.1140E-01  0.1234E-01
      2.532  0.1224E-01  0.1277E-01
      2.567  0.1232E-01  0.1320E-01
      2.602  0.1248E-01  0.1364E-01
      2.637  0.1331E-01  0.1411E-01
      2.672  0.1455E-01  0.1461E-01
      2.707  0.1542E-01  0.1515E-01
      2.742  0.1543E-01  0.1569E-01
      2.777  0.1481E-01  0.1621E-01
      2.812  0.1440E-01  0.1671E-01
      2.847  0.1517E-01  0.1724E-01
      2.882  0.1775E-01  0.1787E-01
      2.917  0.2209E-01  0.1864E-01
      2.952  0.2724E-01  0.1959E-01
      2.987  0.3160E-01  0.2070E-01
      3.022  0.3408E-01  0.2189E-01
      3.057  0.3497E-01  0.2311E-01
      3.092  0.3515E-01  0.2434E-01
      3.127  0.3456E-01  0.2555E-01
      3.162  0.3220E-01  0.2667E-01
      3.197  0.2769E-01  0.2764E-01
      3.232  0.2210E-01  0.2842E-01
      3.267  0.1678E-01  0.2900E-01
      3.302  0.1239E-01  0.2944E-01
      3.337  0.9180E-02  0.2976E-01
      3.372  0.7992E-02  0.3004E-01
      3.407  0.1023E-01  0.3039E-01
      3.442  0.1674E-01  0.3098E-01
      3.477  0.2680E-01  0.3192E-01
      3.511  0.3846E-01  0.3326E-01
      3.546  0.4993E-01  0.3501E-01
      3.581  0.6015E-01  0.3711E-01
      3.616  0.6771E-01  0.3948E-01
      3.651  0.7021E-01  0.4193E-01
      3.686  0.6610E-01  0.4425E-01
      3.721  0.5684E-01  0.4623E-01
      3.756  0.4620E-01  0.4785E-01
      3.791  0.3750E-01  0.4916E-01
      3.826  0.3214E-01  0.5029E-01
      3.861  0.3045E-01  0.5135E-01
      3.896  0.3268E-01  0.5249E-01
      3.931  0.3862E-01  0.5384E-01
      3.966  0.4668E-01  0.5548E-01
      4.001  0.5438E-01  0.5738E-01
      4.036  0.5978E-01  0.5947E-01
      4.071  0.6266E-01  0.6166E-01
      4.106  0.6424E-01  0.6391E-01
      4.141  0.6603E-01  0.6622E-01
      4.176  0.6838E-01  0.6861E-01
      4.211  0.7022E-01  0.7106E-01
      4.246  0.7026E-01  0.7352E-01
      4.281  0.6800E-01  0.7590E-01
      4.316  0.6335E-01  0.7811E-01
      4.351  0.5675E-01  0.8010E-01
      4.386  0.4999E-01  0.8185E-01
      4.421  0.4568E-01  0.8344E-01
      4.456  0.4483E-01  0.8501E-01
      4.491  0.4571E-01  0.8661E-01
      4.526  0.4540E-01  0.8820E-01
      4.561  0.4242E-01  0.8968E-01
      4.596  0.3775E-01  0.9100E-01
      4.631  0.3378E-01  0.9218E-01
      4.666  0.3278E-01  0.9333E-01
      4.701  0.3552E-01  0.9457E-01
      4.735  0.4079E-01  0.9600E-01
      4.770  0.4628E-01  0.9762E-01
      4.805  0.5072E-01  0.9939E-01
      4.840  0.5471E-01  0.1013E+00
      4.875  0.5925E-01  0.1034E+00
      4.910  0.6374E-01  0.1056E+00
      4.945  0.6650E-01  0.1079E+00
      4.980  0.6703E-01  0.1103E+00
      5.015  0.6700E-01  0.1126E+00
      5.050  0.6810E-01  0.1150E+00
      5.085  0.6976E-01  0.1174E+00
      5.120  0.7002E-01  0.1199E+00
      5.155  0.6823E-01  0.1223E+00
      5.190  0.6587E-01  0.1246E+00
      5.225  0.6486E-01  0.1268E+00
      5.260  0.6568E-01  0.1291E+00
      5.295  0.6690E-01  0.1315E+00
      5.330  0.6636E-01  0.1338E+00
      5.365  0.6336E-01  0.1360E+00
      5.400  0.5958E-01  0.1381E+00
      5.435  0.5764E-01  0.1401E+00
      5.470  0.5865E-01  0.1422E+00
      5.505  0.6166E-01  0.1443E+00
      5.540  0.6539E-01  0.1466E+00
      5.575  0.6959E-01  0.1490E+00
      5.610  0.7395E-01  0.1516E+00
      5.645  0.7643E-01  0.1543E+00
      5.680  0.7423E-01  0.1569E+00
      5.715  0.6692E-01  0.1592E+00
      5.750  0.5770E-01  0.1613E+00
      5.785  0.5107E-01  0.1630E+00
      5.820  0.4958E-01  0.1648E+00
      5.855  0.5269E-01  0.1666E+00
      5.890  0.5803E-01  0.1687E+00
      5.925  0.6330E-01  0.1709E+00
      5.959  0.6720E-01  0.1732E+00
      5.994  0.6938E-01  0.1756E+00
      6.029  0.6971E-01  0.1781E+00
      6.064  0.6809E-01  0.1805E+00
      6.099  0.6504E-01  0.1827E+00
      6.134  0.6209E-01  0.1849E+00
      6.169  0.6104E-01  0.1870E+00
      6.204  0.6317E-01  0.1892E+00
      6.239  0.6866E-01  0.1916E+00
      6.274  0.7600E-01  0.1943E+00
      6.309  0.8238E-01  0.1972E+00
      6.344  0.8483E-01  0.2002E+00
      6.379  0.8156E-01  0.2030E+00
      6.414  0.7255E-01  0.2055E+00
      6.449  0.5981E-01  0.2076E+00
      6.484  0.4672E-01  0.2093E+00
      6.519  0.3656E-01  0.2105E+00
      6.554  0.3098E-01  0.2116E+00
      6.589  0.2946E-01  0.2127E+00
      6.624  0.2993E-01  0.2137E+00
      6.659  0.3011E-01  0.2148E+00
      6.694  0.2887E-01  0.2158E+00
      6.729  0.2670E-01  0.2167E+00
      6.764  0.2484E-01  0.2176E+00
      6.799  0.2392E-01  0.2184E+00
      6.834  0.2360E-01  0.2192E+00
      6.869  0.2325E-01  0.2200E+00
      6.904  0.2284E-01  0.2208E+00
      6.939  0.2307E-01  0.2217E+00
      6.974  0.2451E-01  0.2225E+00
      7.009  0.2695E-01  0.2235E+00
      7.044  0.3007E-01  0.2245E+00
      7.079  0.3387E-01  0.2257E+00
      7.114  0.3803E-01  0.2270E+00
      7.148  0.4163E-01  0.2285E+00
      7.183  0.4442E-01  0.2300E+00
      7.218  0.4761E-01  0.2317E+00
      7.253  0.5245E-01  0.2335E+00
      7.288  0.5891E-01  0.2356E+00
      7.323  0.6600E-01  0.2379E+00
      7.358  0.7245E-01  0.2404E+00
      7.393  0.7669E-01  0.2431E+00
      7.428  0.7724E-01  0.2458E+00
      7.463  0.7391E-01  0.2484E+00
      7.498  0.6820E-01  0.2508E+00
      7.533  0.6238E-01  0.2530E+00
      7.568  0.5803E-01  0.2550E+00
      7.603  0.5507E-01  0.2569E+00
      7.638  0.5193E-01  0.2587E+00
      7.673  0.4696E-01  0.2604E+00
      7.708  0.4034E-01  0.2618E+00
      7.743  0.3455E-01  0.2630E+00
      7.778  0.3224E-01  0.2641E+00
      7.813  0.3374E-01  0.2653E+00
      7.848  0.3655E-01  0.2666E+00
      7.883  0.3725E-01  0.2679E+00
      7.918  0.3395E-01  0.2691E+00
      7.953  0.2731E-01  0.2700E+00
      7.988  0.1966E-01  0.2707E+00
      8.023  0.1324E-01  0.2712E+00
      8.058  0.8872E-02  0.2715E+00
      8.093  0.6094E-02  0.2717E+00
      8.128  0.4086E-02  0.2718E+00
      8.163  0.2459E-02  0.2719E+00
      8.198  0.1245E-02  0.2720E+00
      8.233  0.5116E-03  0.2720E+00
      8.268  0.1678E-03  0.2720E+00
      8.303  0.4361E-04  0.2720E+00
      8.338  0.8939E-05  0.2720E+00
      8.372  0.1443E-05  0.2720E+00
      8.407  0.1833E-06  0.2720E+00
      8.442  0.1831E-07  0.2720E+00
      8.477  0.1438E-08  0.2720E+00
      8.512  0.8875E-10  0.2720E+00
      8.547  0.4304E-11  0.2720E+00
      8.582  0.1639E-12  0.2720E+00
      8.617  0.4902E-14  0.2720E+00
      8.652  0.1164E-15  0.2720E+00
      8.687  0.2116E-17  0.2720E+00
      8.722  0.0000E+00  0.2720E+00
      8.757  0.0000E+00  0.2720E+00
      8.792  0.0000E+00  0.2720E+00
      8.827  0.0000E+00  0.2720E+00
      8.862  0.0000E+00  0.2720E+00
      8.897  0.0000E+00  0.2720E+00
      8.932  0.0000E+00  0.2720E+00
      8.967  0.0000E+00  0.2720E+00
      9.002  0.0000E+00  0.2720E+00
      9.037  0.0000E+00  0.2720E+00
      9.072  0.0000E+00  0.2720E+00
