   20   20  500    1
  0.1295360E+02  0.6096575E-09  0.1051755E-08  0.4040359E-09  0.5000000E-15
  1.000000000000000E-004
  CAR 
 unknown system                          
    109      4     68
 
  0.0000000E+00  0.0000000E+00  0.0000000E+00  0.1666667E+00
    1       -0.419431   1.000000
    2        1.344048   1.000000
    3        1.438047   1.000000
    4        2.957636   1.000000
    5        3.000157   1.000000
    6        3.053422   1.000000
    7        3.173316   1.000000
    8        3.540336   1.000000
    9        3.631861   1.000000
   10        3.672663   1.000000
   11        3.690481   1.000000
   12        3.695440   1.000000
   13        3.802422   1.000000
   14        4.075810   1.000000
   15        4.090303   1.000000
   16        4.185177   1.000000
   17        4.210051   1.000000
   18        4.217609   1.000000
   19        4.263955   1.000000
   20        4.418266   1.000000
   21        4.435671   1.000000
   22        4.456496   1.000000
   23        4.518714   1.000000
   24        4.528937   1.000000
   25        4.565391   1.000000
   26        4.586589   1.000000
   27        4.825780   1.000000
   28        4.894243   1.000000
   29        4.927255   1.000000
   30        4.953577   1.000000
   31        5.289859   1.000000
   32        5.312920   1.000000
   33        5.323532   1.000000
   34        5.377505   1.000000
   35        5.431380   1.000000
   36        5.498875   1.000000
   37        5.518849   1.000000
   38        5.600543   1.000000
   39        5.639608   1.000000
   40        5.742650   1.000000
   41        5.794448   1.000000
   42        5.846078   1.000000
   43        5.889909   1.000000
   44        5.966287   1.000000
   45        5.975210   1.000000
   46        6.013480   1.000000
   47        6.030707   1.000000
   48        6.106426   1.000000
   49        6.135181   1.000000
   50        6.194394   1.000000
   51        6.304267   1.000000
   52        6.362051   1.000000
   53        6.368842   1.000000
   54        6.399459   1.000000
   55        6.544335   0.999602
   56        6.754413   0.649339
   57        7.011704   0.000567
   58        7.117863   0.000001
   59        7.261594   0.000000
   60        7.268390   0.000000
   61        7.273722   0.000000
   62        7.346710   0.000000
   63        7.408629   0.000000
   64        7.456293   0.000000
   65        7.536037   0.000000
   66        7.621877   0.000000
   67        7.676623   0.000000
   68        7.827354   0.000000
 
  0.5000000E+00  0.0000000E+00  0.0000000E+00  0.1666667E+00
    1        0.673142   1.000000
    2        0.823765   1.000000
    3        1.832739   1.000000
    4        1.853921   1.000000
    5        2.463787   1.000000
    6        2.771601   1.000000
    7        2.975223   1.000000
    8        3.192918   1.000000
    9        3.504702   1.000000
   10        3.541427   1.000000
   11        3.609860   1.000000
   12        3.665857   1.000000
   13        4.008995   1.000000
   14        4.032279   1.000000
   15        4.075662   1.000000
   16        4.160323   1.000000
   17        4.171685   1.000000
   18        4.218239   1.000000
   19        4.243313   1.000000
   20        4.351573   1.000000
   21        4.400406   1.000000
   22        4.450635   1.000000
   23        4.502015   1.000000
   24        4.636364   1.000000
   25        4.729500   1.000000
   26        4.736045   1.000000
   27        4.810089   1.000000
   28        4.966869   1.000000
   29        5.052600   1.000000
   30        5.068864   1.000000
   31        5.126194   1.000000
   32        5.159984   1.000000
   33        5.304930   1.000000
   34        5.317538   1.000000
   35        5.361246   1.000000
   36        5.490301   1.000000
   37        5.526527   1.000000
   38        5.586455   1.000000
   39        5.611068   1.000000
   40        5.638577   1.000000
   41        5.669974   1.000000
   42        5.680594   1.000000
   43        5.907507   1.000000
   44        5.937371   1.000000
   45        6.024000   1.000000
   46        6.025318   1.000000
   47        6.082454   1.000000
   48        6.253665   1.000000
   49        6.290453   1.000000
   50        6.308557   1.000000
   51        6.362331   1.000000
   52        6.383868   1.000000
   53        6.394223   1.000000
   54        6.454491   0.999998
   55        7.160255   0.000000
   56        7.228998   0.000000
   57        7.270825   0.000000
   58        7.315399   0.000000
   59        7.367238   0.000000
   60        7.397423   0.000000
   61        7.430564   0.000000
   62        7.466443   0.000000
   63        7.525769   0.000000
   64        7.732283   0.000000
   65        7.911314   0.000000
   66        7.926303   0.000000
   67        7.971137   0.000000
   68        8.071909   0.000000
 
  0.0000000E+00  0.0000000E+00  0.3333333E+00  0.3333333E+00
    1        0.777205   1.000000
    2        2.133852   1.000000
    3        2.515328   1.000000
    4        2.639692   1.000000
    5        2.955999   1.000000
    6        3.094731   1.000000
    7        3.142520   1.000000
    8        3.504925   1.000000
    9        3.549624   1.000000
   10        3.617208   1.000000
   11        3.634671   1.000000
   12        3.771741   1.000000
   13        3.896326   1.000000
   14        3.950092   1.000000
   15        3.980670   1.000000
   16        4.094957   1.000000
   17        4.172388   1.000000
   18        4.186235   1.000000
   19        4.194629   1.000000
   20        4.300903   1.000000
   21        4.315358   1.000000
   22        4.495485   1.000000
   23        4.620840   1.000000
   24        4.746470   1.000000
   25        4.769133   1.000000
   26        4.859895   1.000000
   27        4.931708   1.000000
   28        4.958714   1.000000
   29        5.079531   1.000000
   30        5.087692   1.000000
   31        5.169415   1.000000
   32        5.239662   1.000000
   33        5.270678   1.000000
   34        5.331454   1.000000
   35        5.413594   1.000000
   36        5.486848   1.000000
   37        5.542158   1.000000
   38        5.628754   1.000000
   39        5.675920   1.000000
   40        5.694774   1.000000
   41        5.745859   1.000000
   42        5.818756   1.000000
   43        5.891207   1.000000
   44        5.949760   1.000000
   45        6.053340   1.000000
   46        6.125548   1.000000
   47        6.156566   1.000000
   48        6.218152   1.000000
   49        6.249784   1.000000
   50        6.271715   1.000000
   51        6.303050   1.000000
   52        6.358626   1.000000
   53        6.425094   1.000000
   54        6.637194   0.979388
   55        6.878024   0.086190
   56        6.978809   0.002636
   57        7.007024   0.000714
   58        7.125012   0.000001
   59        7.309839   0.000000
   60        7.366559   0.000000
   61        7.386349   0.000000
   62        7.453263   0.000000
   63        7.484653   0.000000
   64        7.571574   0.000000
   65        7.638092   0.000000
   66        7.658334   0.000000
   67        7.794290   0.000000
   68        7.877886   0.000000
 
  0.5000000E+00  0.0000000E+00  0.3333333E+00  0.3333333E+00
    1        1.203015   1.000000
    2        2.074926   1.000000
    3        2.316661   1.000000
    4        2.719004   1.000000
    5        2.862458   1.000000
    6        3.009519   1.000000
    7        3.126069   1.000000
    8        3.276979   1.000000
    9        3.479871   1.000000
   10        3.611087   1.000000
   11        3.629309   1.000000
   12        3.663395   1.000000
   13        3.719239   1.000000
   14        3.826245   1.000000
   15        3.968191   1.000000
   16        4.003915   1.000000
   17        4.047485   1.000000
   18        4.090968   1.000000
   19        4.277985   1.000000
   20        4.310143   1.000000
   21        4.334305   1.000000
   22        4.515094   1.000000
   23        4.727883   1.000000
   24        4.825481   1.000000
   25        4.896895   1.000000
   26        4.916059   1.000000
   27        4.971817   1.000000
   28        5.035427   1.000000
   29        5.061527   1.000000
   30        5.086976   1.000000
   31        5.137187   1.000000
   32        5.180701   1.000000
   33        5.211400   1.000000
   34        5.269964   1.000000
   35        5.349454   1.000000
   36        5.450224   1.000000
   37        5.509901   1.000000
   38        5.595518   1.000000
   39        5.638767   1.000000
   40        5.672378   1.000000
   41        5.837399   1.000000
   42        5.902906   1.000000
   43        5.955315   1.000000
   44        6.034458   1.000000
   45        6.047464   1.000000
   46        6.158068   1.000000
   47        6.261788   1.000000
   48        6.329331   1.000000
   49        6.348567   1.000000
   50        6.414655   1.000000
   51        6.476791   0.999992
   52        6.564229   0.998941
   53        6.639378   0.977804
   54        6.682974   0.918316
   55        6.775044   0.536557
   56        6.847699   0.174705
   57        7.100673   0.000003
   58        7.138484   0.000000
   59        7.206686   0.000000
   60        7.276895   0.000000
   61        7.386316   0.000000
   62        7.392418   0.000000
   63        7.475059   0.000000
   64        7.545211   0.000000
   65        7.600146   0.000000
   66        7.669954   0.000000
   67        7.836460   0.000000
   68        7.882002   0.000000
