       N       E                     dE             d eps       ncg     rms          rms(c)
DAV:   1     0.723986311842E+03    0.72399E+03   -0.23670E+04   544   0.114E+03
DAV:   2     0.600893398804E+01   -0.71798E+03   -0.68976E+03   544   0.329E+02
DAV:   3    -0.132075146544E+03   -0.13808E+03   -0.12997E+03   944   0.155E+02
DAV:   4    -0.147889521179E+03   -0.15814E+02   -0.15066E+02   880   0.709E+01
DAV:   5    -0.148876735371E+03   -0.98721E+00   -0.93456E+00   904   0.138E+01    0.556E+01
DAV:   6    -0.212347928055E+03   -0.63471E+02   -0.54291E+02  1088   0.238E+02    0.107E+02
DAV:   7    -0.147587998233E+03    0.64760E+02   -0.39203E+02  1012   0.133E+02    0.400E+01
DAV:   8    -0.166106746077E+03   -0.18519E+02   -0.39429E+02  1072   0.168E+02    0.537E+01
DAV:   9    -0.144173231079E+03    0.21934E+02   -0.19760E+02   976   0.122E+02    0.286E+01
DAV:  10    -0.142046209887E+03    0.21270E+01   -0.57662E+01  1016   0.627E+01    0.210E+01
DAV:  11    -0.140129070247E+03    0.19171E+01   -0.12042E+01   992   0.337E+01    0.126E+01
DAV:  12    -0.139694648496E+03    0.43442E+00   -0.30629E+00   960   0.147E+01    0.921E+00
DAV:  13    -0.139875204462E+03   -0.18056E+00   -0.47703E-01   952   0.468E+00    0.104E+01
DAV:  14    -0.139931366043E+03   -0.56162E-01   -0.56613E-01  1008   0.654E+00    0.101E+01
DAV:  15    -0.139768453061E+03    0.16291E+00   -0.14408E+00  1008   0.120E+01    0.837E+00
DAV:  16    -0.139621769550E+03    0.14668E+00   -0.79546E-01   968   0.874E+00    0.673E+00
DAV:  17    -0.139489870458E+03    0.13190E+00   -0.21912E-01   944   0.440E+00    0.491E+00
DAV:  18    -0.139484261298E+03    0.56092E-02   -0.31303E-02   696   0.140E+00    0.478E+00
DAV:  19    -0.139480801977E+03    0.34593E-02   -0.49977E-03   896   0.466E-01    0.455E+00
DAV:  20    -0.139442202919E+03    0.38599E-01   -0.96141E-02  1048   0.263E+00    0.325E+00
DAV:  21    -0.139390592761E+03    0.51610E-01   -0.13059E-01  1088   0.313E+00    0.133E+00
DAV:  22    -0.139389309984E+03    0.12828E-02   -0.19830E-02   840   0.112E+00    0.113E+00
DAV:  23    -0.139387453631E+03    0.18564E-02   -0.31007E-03   840   0.471E-01    0.978E-01
DAV:  24    -0.139386389333E+03    0.10643E-02   -0.82882E-04   904   0.172E-01    0.892E-01
DAV:  25    -0.139383482639E+03    0.29067E-02   -0.40615E-03  1064   0.472E-01    0.583E-01
DAV:  26    -0.139381768667E+03    0.17140E-02   -0.40988E-03   992   0.466E-01    0.281E-01
DAV:  27    -0.139381430495E+03    0.33817E-03   -0.16996E-03   928   0.283E-01    0.123E-01
DAV:  28    -0.139381359241E+03    0.71254E-04   -0.61291E-04   904   0.183E-01    0.545E-02
DAV:  29    -0.139381363293E+03   -0.40516E-05   -0.13397E-04   784   0.992E-02    0.383E-02
DAV:  30    -0.139381363038E+03    0.25455E-06   -0.38763E-05   536   0.624E-02
   1 F= -.13938136E+03 E0= -.13932967E+03  d E =-.139381E+03
       N       E                     dE             d eps       ncg     rms          rms(c)
DAV:   1    -0.219999524933E+03   -0.80618E+02   -0.30948E+03   544   0.412E+02    0.108E+02
DAV:   2    -0.479700808213E+03   -0.25970E+03   -0.43816E+03   976   0.302E+02    0.161E+02
DAV:   3    -0.136504871884E+03    0.34320E+03   -0.18194E+03   920   0.252E+02    0.821E+01
DAV:   4    -0.190619846508E+03   -0.54115E+02   -0.20309E+03  1056   0.278E+02    0.593E+01
DAV:   5    -0.157901140481E+03    0.32719E+02   -0.32966E+02   936   0.109E+02    0.461E+01
DAV:   6    -0.150836081483E+03    0.70651E+01   -0.10509E+02   952   0.593E+01    0.359E+01
DAV:   7    -0.146247335357E+03    0.45887E+01   -0.32026E+01  1000   0.354E+01    0.293E+01
DAV:   8    -0.145810544776E+03    0.43679E+00   -0.77382E+00   984   0.177E+01    0.277E+01
DAV:   9    -0.145904098224E+03   -0.93553E-01   -0.44512E+00  1088   0.138E+01    0.276E+01
DAV:  10    -0.144935083127E+03    0.96902E+00   -0.92146E+00  1088   0.208E+01    0.233E+01
DAV:  11    -0.145703732377E+03   -0.76865E+00   -0.21676E+01  1088   0.309E+01    0.248E+01
DAV:  12    -0.150281392780E+03   -0.45777E+01   -0.43860E+01  1088   0.373E+01    0.362E+01
DAV:  13    -0.147474805005E+03    0.28066E+01   -0.33239E+01  1080   0.314E+01    0.297E+01
DAV:  14    -0.144532731799E+03    0.29421E+01   -0.12985E+01  1064   0.198E+01    0.184E+01
DAV:  15    -0.143349953801E+03    0.11828E+01   -0.14994E+01  1056   0.224E+01    0.115E+01
DAV:  16    -0.144500863391E+03   -0.11509E+01   -0.13619E+01  1088   0.220E+01    0.178E+01
DAV:  17    -0.143341041322E+03    0.11598E+01   -0.52912E+00  1072   0.143E+01    0.116E+01
DAV:  18    -0.143161500377E+03    0.17954E+00   -0.49882E-01   960   0.397E+00    0.961E+00
DAV:  19    -0.142946105136E+03    0.21540E+00   -0.81005E-01   928   0.492E+00    0.712E+00
DAV:  20    -0.142832748534E+03    0.11336E+00   -0.39318E-01  1000   0.357E+00    0.540E+00
DAV:  21    -0.142808589907E+03    0.24159E-01   -0.64441E-02   944   0.141E+00    0.470E+00
DAV:  22    -0.142804973410E+03    0.36165E-02   -0.57947E-02   944   0.133E+00    0.468E+00
DAV:  23    -0.142763752738E+03    0.41221E-01   -0.63017E-02  1064   0.134E+00    0.352E+00
DAV:  24    -0.142715970217E+03    0.47783E-01   -0.15977E-01  1032   0.207E+00    0.162E+00
DAV:  25    -0.142714321956E+03    0.16483E-02   -0.67982E-02   936   0.134E+00    0.155E+00
DAV:  26    -0.142707098757E+03    0.72232E-02   -0.18424E-02  1064   0.742E-01    0.906E-01
DAV:  27    -0.142706835481E+03    0.26328E-03   -0.14424E-03   888   0.186E-01    0.825E-01
DAV:  28    -0.142707611648E+03   -0.77617E-03   -0.24891E-03  1072   0.273E-01    0.913E-01
DAV:  29    -0.142706094194E+03    0.15175E-02   -0.15315E-03  1088   0.232E-01    0.699E-01
DAV:  30    -0.142704591481E+03    0.15027E-02   -0.37369E-03  1088   0.316E-01    0.319E-01
DAV:  31    -0.142704551188E+03    0.40294E-04   -0.67027E-04   904   0.129E-01    0.272E-01
DAV:  32    -0.142704444661E+03    0.10653E-03   -0.31559E-04   984   0.877E-02    0.204E-01
DAV:  33    -0.142704414068E+03    0.30593E-04   -0.10340E-04   800   0.529E-02    0.183E-01
DAV:  34    -0.142704314919E+03    0.99149E-04   -0.21602E-04  1064   0.722E-02    0.932E-02
DAV:  35    -0.142704310058E+03    0.48604E-05   -0.63875E-05   680   0.408E-02
   2 F= -.14270431E+03 E0= -.14260138E+03  d E =-.332295E+01
       N       E                     dE             d eps       ncg     rms          rms(c)
DAV:   1    -0.171778778441E+03   -0.29074E+02   -0.55343E+02   560   0.160E+02    0.566E+01
DAV:   2    -0.370850820347E+03   -0.19907E+03   -0.17322E+03  1032   0.342E+02    0.296E+02
DAV:   3    -0.316599287837E+03    0.54252E+02   -0.69825E+02   936   0.131E+02    0.110E+02
DAV:   4    -0.163162909448E+03    0.15344E+03   -0.57666E+02   928   0.123E+02    0.466E+01
DAV:   5    -0.150681123774E+03    0.12482E+02   -0.19539E+02   968   0.861E+01    0.234E+01
DAV:   6    -0.152282071631E+03   -0.16009E+01   -0.80677E+01  1088   0.654E+01    0.290E+01
DAV:   7    -0.151670894919E+03    0.61118E+00   -0.40809E+01  1064   0.443E+01    0.247E+01
DAV:   8    -0.148774573712E+03    0.28963E+01   -0.11264E+01  1032   0.247E+01    0.137E+01
DAV:   9    -0.148351327816E+03    0.42325E+00   -0.13065E+01  1088   0.224E+01    0.114E+01
DAV:  10    -0.148108525413E+03    0.24280E+00   -0.12110E+00   960   0.772E+00    0.907E+00
DAV:  11    -0.148000980576E+03    0.10754E+00   -0.71024E-01  1088   0.577E+00    0.767E+00
DAV:  12    -0.147942463453E+03    0.58517E-01   -0.83693E-01  1072   0.664E+00    0.663E+00
DAV:  13    -0.147846227049E+03    0.96236E-01   -0.60038E-01  1080   0.527E+00    0.502E+00
DAV:  14    -0.147838465410E+03    0.77616E-02   -0.37900E-01   992   0.404E+00    0.433E+00
DAV:  15    -0.147824808539E+03    0.13657E-01   -0.11560E-01   992   0.247E+00    0.385E+00
DAV:  16    -0.147825505694E+03   -0.69716E-03   -0.22921E-02  1024   0.117E+00    0.379E+00
DAV:  17    -0.147824907395E+03    0.59830E-03   -0.13348E-02  1080   0.892E-01    0.342E+00
DAV:  18    -0.147822420397E+03    0.24870E-02   -0.17816E-02   928   0.867E-01    0.316E+00
DAV:  19    -0.147821817429E+03    0.60297E-03   -0.25501E-03   912   0.369E-01    0.277E+00
DAV:  20    -0.147821351563E+03    0.46587E-03   -0.23583E-03   880   0.358E-01    0.260E+00
DAV:  21    -0.147820579083E+03    0.77248E-03   -0.21841E-03  1048   0.330E-01    0.223E+00
DAV:  22    -0.147820356863E+03    0.22222E-03   -0.45981E-04   896   0.155E-01    0.210E+00
DAV:  23    -0.147819735007E+03    0.62186E-03   -0.18057E-03   984   0.276E-01    0.139E+00
DAV:  24    -0.147819530829E+03    0.20418E-03   -0.78797E-04   888   0.187E-01    0.116E+00
DAV:  25    -0.147819309927E+03    0.22090E-03   -0.10001E-03  1000   0.192E-01    0.803E-01
DAV:  26    -0.147819238889E+03    0.71038E-04   -0.24998E-04   872   0.986E-02    0.643E-01
DAV:  27    -0.147819169871E+03    0.69018E-04   -0.47481E-04   928   0.130E-01    0.102E-01
DAV:  28    -0.147819158583E+03    0.11288E-04   -0.34220E-04   944   0.120E-01    0.207E-01
DAV:  29    -0.147819151672E+03    0.69110E-05   -0.74852E-05   688   0.614E-02
   3 F= -.14781915E+03 E0= -.14774600E+03  d E =-.843779E+01
       N       E                     dE             d eps       ncg     rms          rms(c)
DAV:   1    -0.147872988004E+03   -0.53829E-01   -0.96912E-01   544   0.737E+00    0.260E+00
DAV:   2    -0.149868017062E+03   -0.19950E+01   -0.98900E+00  1072   0.246E+01    0.183E+01
DAV:   3    -0.147784380736E+03    0.20836E+01   -0.94054E+00  1088   0.236E+01    0.137E+00
DAV:   4    -0.147852553654E+03   -0.68173E-01   -0.96141E-01   936   0.562E+00    0.176E+00
DAV:   5    -0.147844237447E+03    0.83162E-02   -0.16274E-01  1024   0.320E+00    0.139E+00
DAV:   6    -0.147836475026E+03    0.77624E-02   -0.58095E-02  1056   0.173E+00    0.874E-01
DAV:   7    -0.147834222320E+03    0.22527E-02   -0.22124E-02  1016   0.115E+00    0.586E-01
DAV:   8    -0.147832638449E+03    0.15839E-02   -0.80650E-03  1056   0.578E-01    0.284E-01
DAV:   9    -0.147832610412E+03    0.28037E-04   -0.36394E-03  1008   0.408E-01    0.271E-01
DAV:  10    -0.147832584167E+03    0.26245E-04   -0.38672E-03  1064   0.417E-01    0.200E-01
DAV:  11    -0.147832248564E+03    0.33560E-03   -0.28833E-03   968   0.405E-01    0.777E-02
DAV:  12    -0.147832292328E+03   -0.43764E-04   -0.10076E-03   928   0.241E-01    0.910E-02
DAV:  13    -0.147832225597E+03    0.66731E-04   -0.52134E-04   896   0.156E-01    0.505E-02
DAV:  14    -0.147832234286E+03   -0.86888E-05   -0.13051E-04   840   0.814E-02    0.561E-02
DAV:  15    -0.147832217232E+03    0.17054E-04   -0.60453E-05   608   0.718E-02    0.331E-02
DAV:  16    -0.147832212941E+03    0.42912E-05   -0.23042E-05   368   0.408E-02
   4 F= -.14783221E+03 E0= -.14776007E+03  d E =-.845085E+01
       N       E                     dE             d eps       ncg     rms          rms(c)
DAV:   1    -0.149666161667E+03   -0.18339E+01   -0.48859E+01   612   0.299E+01    0.779E+00
DAV:   2    -0.159943336680E+03   -0.10277E+02   -0.84618E+01  1064   0.666E+01    0.338E+01
DAV:   3    -0.149130941856E+03    0.10812E+02   -0.60694E+01  1064   0.601E+01    0.947E+00
DAV:   4    -0.148774997155E+03    0.35594E+00   -0.83944E+00  1088   0.213E+01    0.477E+00
DAV:   5    -0.148824964341E+03   -0.49967E-01   -0.29852E+00   928   0.126E+01    0.449E+00
DAV:   6    -0.148720766500E+03    0.10420E+00   -0.20234E+00  1072   0.106E+01    0.405E+00
DAV:   7    -0.148667348387E+03    0.53418E-01   -0.10241E+00  1064   0.767E+00    0.275E+00
DAV:   8    -0.148655148876E+03    0.12200E-01   -0.56649E-01  1072   0.535E+00    0.216E+00
DAV:   9    -0.148618432302E+03    0.36717E-01   -0.27267E-01  1016   0.366E+00    0.553E-01
DAV:  10    -0.148618959456E+03   -0.52715E-03   -0.38934E-02   952   0.132E+00    0.466E-01
DAV:  11    -0.148617645713E+03    0.13137E-02   -0.14575E-02  1048   0.931E-01    0.311E-01
DAV:  12    -0.148617588934E+03    0.56778E-04   -0.84504E-03  1064   0.681E-01    0.284E-01
DAV:  13    -0.148617439219E+03    0.14972E-03   -0.55148E-03  1040   0.534E-01    0.208E-01
DAV:  14    -0.148617053763E+03    0.38546E-03   -0.29371E-03   936   0.360E-01    0.676E-02
DAV:  15    -0.148617104516E+03   -0.50754E-04   -0.86414E-04  1056   0.213E-01    0.992E-02
DAV:  16    -0.148617038772E+03    0.65744E-04   -0.44183E-04  1048   0.158E-01    0.279E-02
DAV:  17    -0.148617046161E+03   -0.73883E-05   -0.15478E-04   800   0.868E-02    0.346E-02
DAV:  18    -0.148617035026E+03    0.11134E-04   -0.58642E-05   552   0.668E-02    0.152E-02
DAV:  19    -0.148617032930E+03    0.20957E-05   -0.14811E-05   336   0.374E-02
   5 F= -.14861703E+03 E0= -.14853662E+03  d E =-.784820E+00
       N       E                     dE             d eps       ncg     rms          rms(c)
DAV:   1    -0.154278459670E+03   -0.56614E+01   -0.33731E+02   544   0.765E+01    0.168E+01
DAV:   2    -0.181998444753E+03   -0.27720E+02   -0.26461E+02  1056   0.122E+02    0.521E+01
DAV:   3    -0.150341256993E+03    0.31657E+02   -0.18422E+02  1064   0.993E+01    0.137E+01
DAV:   4    -0.150561928678E+03   -0.22067E+00   -0.30142E+01   976   0.373E+01    0.996E+00
DAV:   5    -0.150608483331E+03   -0.46555E-01   -0.10859E+01  1048   0.305E+01    0.936E+00
DAV:   6    -0.149743894883E+03    0.86459E+00   -0.79424E+00   992   0.213E+01    0.448E+00
DAV:   7    -0.149947102297E+03   -0.20321E+00   -0.41961E+00  1048   0.154E+01    0.660E+00
DAV:   8    -0.149662393809E+03    0.28471E+00   -0.30015E+00  1064   0.132E+01    0.301E+00
DAV:   9    -0.149628134292E+03    0.34260E-01   -0.82771E-01  1016   0.694E+00    0.189E+00
DAV:  10    -0.149600601426E+03    0.27533E-01   -0.24445E-01   880   0.350E+00    0.757E-01
DAV:  11    -0.149597074067E+03    0.35274E-02   -0.66279E-02   984   0.183E+00    0.473E-01
DAV:  12    -0.149596231381E+03    0.84269E-03   -0.16992E-02  1008   0.992E-01    0.290E-01
DAV:  13    -0.149595893920E+03    0.33746E-03   -0.99904E-03   920   0.654E-01    0.193E-01
DAV:  14    -0.149595933979E+03   -0.40059E-04   -0.45125E-03   952   0.471E-01    0.178E-01
DAV:  15    -0.149595670077E+03    0.26390E-03   -0.22632E-03   984   0.365E-01    0.882E-02
DAV:  16    -0.149595655221E+03    0.14856E-04   -0.77517E-04   936   0.215E-01    0.697E-02
DAV:  17    -0.149595635461E+03    0.19760E-04   -0.38620E-04  1056   0.140E-01    0.511E-02
DAV:  18    -0.149595619281E+03    0.16181E-04   -0.20391E-04  1024   0.101E-01    0.235E-02
DAV:  19    -0.149595620365E+03   -0.10846E-05   -0.66653E-05   720   0.692E-02
   6 F= -.14959562E+03 E0= -.14953554E+03  d E =-.176341E+01
       N       E                     dE             d eps       ncg     rms          rms(c)
DAV:   1    -0.150352854833E+03   -0.75724E+00   -0.32978E+01   544   0.244E+01    0.484E+00
DAV:   2    -0.153188084174E+03   -0.28352E+01   -0.23308E+01  1040   0.372E+01    0.205E+01
DAV:   3    -0.150161956150E+03    0.30261E+01   -0.16541E+01  1080   0.298E+01    0.320E+00
DAV:   4    -0.150202312537E+03   -0.40356E-01   -0.23010E+00   920   0.114E+01    0.297E+00
DAV:   5    -0.150141222239E+03    0.61090E-01   -0.87287E-01   992   0.774E+00    0.185E+00
DAV:   6    -0.150110042952E+03    0.31179E-01   -0.52948E-01   880   0.495E+00    0.108E+00
DAV:   7    -0.150109289609E+03    0.75334E-03   -0.16868E-01  1000   0.271E+00    0.109E+00
DAV:   8    -0.150098449048E+03    0.10841E-01   -0.74837E-02  1032   0.193E+00    0.245E-01
DAV:   9    -0.150099217217E+03   -0.76817E-03   -0.14527E-02   952   0.842E-01    0.364E-01
DAV:  10    -0.150098255136E+03    0.96208E-03   -0.81054E-03  1056   0.732E-01    0.157E-01
DAV:  11    -0.150098270326E+03   -0.15189E-04   -0.31854E-03  1016   0.458E-01    0.145E-01
DAV:  12    -0.150098152620E+03    0.11771E-03   -0.13376E-03  1024   0.293E-01    0.680E-02
DAV:  13    -0.150098128044E+03    0.24576E-04   -0.47613E-04   976   0.161E-01    0.492E-02
DAV:  14    -0.150098130059E+03   -0.20154E-05   -0.24426E-04  1016   0.118E-01    0.423E-02
DAV:  15    -0.150098112743E+03    0.17317E-04   -0.12422E-04   880   0.791E-02    0.100E-02
DAV:  16    -0.150098114013E+03   -0.12701E-05   -0.16804E-05   384   0.342E-02
   7 F= -.15009811E+03 E0= -.15003876E+03  d E =-.502494E+00
       N       E                     dE             d eps       ncg     rms          rms(c)
DAV:   1    -0.150943041226E+03   -0.84493E+00   -0.85157E+01   544   0.384E+01    0.675E+00
DAV:   2    -0.153886669167E+03   -0.29436E+01   -0.31864E+01  1032   0.419E+01    0.209E+01
DAV:   3    -0.150652262289E+03    0.32344E+01   -0.24251E+01  1088   0.342E+01    0.530E+00
DAV:   4    -0.150741784832E+03   -0.89523E-01   -0.49903E+00  1032   0.169E+01    0.541E+00
DAV:   5    -0.150539545997E+03    0.20224E+00   -0.29753E+00  1080   0.133E+01    0.340E+00
DAV:   6    -0.150433866961E+03    0.10568E+00   -0.14479E+00   896   0.733E+00    0.175E+00
DAV:   7    -0.150456724052E+03   -0.22857E-01   -0.61778E-01  1080   0.494E+00    0.248E+00
DAV:   8    -0.150405426945E+03    0.51297E-01   -0.33006E-01  1064   0.403E+00    0.393E-01
DAV:   9    -0.150412263873E+03   -0.68369E-02   -0.78141E-02   968   0.173E+00    0.887E-01
DAV:  10    -0.150405718507E+03    0.65454E-02   -0.44073E-02  1072   0.150E+00    0.287E-01
DAV:  11    -0.150405600759E+03    0.11775E-03   -0.95801E-03  1008   0.709E-01    0.235E-01
DAV:  12    -0.150405502217E+03    0.98543E-04   -0.54899E-03  1040   0.513E-01    0.173E-01
DAV:  13    -0.150405266791E+03    0.23543E-03   -0.26878E-03   936   0.352E-01    0.886E-02
DAV:  14    -0.150405325072E+03   -0.58281E-04   -0.11477E-03  1088   0.240E-01    0.110E-01
DAV:  15    -0.150405220473E+03    0.10460E-03   -0.68991E-04  1056   0.175E-01    0.195E-02
DAV:  16    -0.150405224619E+03   -0.41463E-05   -0.78076E-05   736   0.600E-02
   8 F= -.15040522E+03 E0= -.15033314E+03  d E =-.809604E+00
       N       E                     dE             d eps       ncg     rms          rms(c)
DAV:   1    -0.151363474682E+03   -0.95825E+00   -0.34786E+01   568   0.295E+01    0.724E+00
DAV:   2    -0.157390618408E+03   -0.60271E+01   -0.49594E+01  1064   0.568E+01    0.270E+01
DAV:   3    -0.150644336213E+03    0.67463E+01   -0.37737E+01  1064   0.466E+01    0.381E+00
DAV:   4    -0.151293496682E+03   -0.64916E+00   -0.84732E+00   984   0.156E+01    0.762E+00
DAV:   5    -0.150934343066E+03    0.35915E+00   -0.26554E+00  1056   0.119E+01    0.292E+00
DAV:   6    -0.150908365704E+03    0.25977E-01   -0.74167E-01  1088   0.651E+00    0.232E+00
DAV:   7    -0.150879834515E+03    0.28531E-01   -0.36034E-01  1088   0.467E+00    0.127E+00
DAV:   8    -0.150872615755E+03    0.72188E-02   -0.15446E-01   904   0.237E+00    0.986E-01
DAV:   9    -0.150872268804E+03    0.34695E-03   -0.66958E-02  1088   0.186E+00    0.791E-01
DAV:  10    -0.150866690722E+03    0.55781E-02   -0.43004E-02  1080   0.154E+00    0.238E-01
DAV:  11    -0.150868084408E+03   -0.13937E-02   -0.16975E-02   928   0.850E-01    0.396E-01
DAV:  12    -0.150866716302E+03    0.13681E-02   -0.10975E-02  1000   0.670E-01    0.206E-01
DAV:  13    -0.150866630020E+03    0.86282E-04   -0.15223E-03   896   0.252E-01    0.169E-01
DAV:  14    -0.150866590100E+03    0.39920E-04   -0.75831E-04  1072   0.190E-01    0.123E-01
DAV:  15    -0.150866499490E+03    0.90609E-04   -0.63097E-04  1064   0.161E-01    0.612E-02
DAV:  16    -0.150866485543E+03    0.13947E-04   -0.18981E-04   976   0.897E-02    0.349E-02
DAV:  17    -0.150866476480E+03    0.90630E-05   -0.61273E-05   640   0.512E-02
   9 F= -.15086648E+03 E0= -.15079333E+03  d E =-.461252E+00
       N       E                     dE             d eps       ncg     rms          rms(c)
DAV:   1    -0.152294550005E+03   -0.14281E+01   -0.70767E+01   584   0.427E+01    0.110E+01
DAV:   2    -0.165241661069E+03   -0.12947E+02   -0.10853E+02  1088   0.866E+01    0.378E+01
DAV:   3    -0.150884432618E+03    0.14357E+02   -0.77029E+01  1056   0.634E+01    0.726E+00
DAV:   4    -0.152003186808E+03   -0.11188E+01   -0.18239E+01  1016   0.238E+01    0.105E+01
DAV:   5    -0.151397419226E+03    0.60577E+00   -0.51408E+00  1032   0.169E+01    0.455E+00
DAV:   6    -0.151319120178E+03    0.78299E-01   -0.16030E+00  1064   0.990E+00    0.335E+00
DAV:   7    -0.151262067649E+03    0.57053E-01   -0.84020E-01  1080   0.689E+00    0.191E+00
DAV:   8    -0.151252992101E+03    0.90755E-02   -0.29737E-01   944   0.360E+00    0.192E+00
DAV:   9    -0.151238374491E+03    0.14618E-01   -0.10638E-01  1064   0.268E+00    0.103E+00
DAV:  10    -0.151232629848E+03    0.57446E-02   -0.65486E-02   984   0.181E+00    0.590E-01
DAV:  11    -0.151234631974E+03   -0.20021E-02   -0.46637E-02   912   0.133E+00    0.644E-01
DAV:  12    -0.151231526713E+03    0.31053E-02   -0.25483E-02   968   0.103E+00    0.376E-01
DAV:  13    -0.151231467392E+03    0.59320E-04   -0.21774E-03   880   0.317E-01    0.326E-01
DAV:  14    -0.151231273909E+03    0.19348E-03   -0.17040E-03  1064   0.281E-01    0.242E-01
DAV:  15    -0.151231081771E+03    0.19214E-03   -0.17426E-03   968   0.273E-01    0.161E-01
DAV:  16    -0.151230953742E+03    0.12803E-03   -0.10110E-03  1072   0.201E-01    0.725E-02
DAV:  17    -0.151230931235E+03    0.22507E-04   -0.25097E-04   904   0.983E-02    0.384E-02
DAV:  18    -0.151230926793E+03    0.44411E-05   -0.28252E-05   472   0.458E-02
  10 F= -.15123093E+03 E0= -.15116569E+03  d E =-.825702E+00
       N       E                     dE             d eps       ncg     rms          rms(c)
DAV:   1    -0.155615380089E+03   -0.43844E+01   -0.29790E+02   608   0.878E+01    0.251E+01
DAV:   2    -0.202348045229E+03   -0.46733E+02   -0.43573E+02  1040   0.192E+02    0.677E+01
DAV:   3    -0.153819677225E+03    0.48528E+02   -0.22775E+02   996   0.916E+01    0.226E+01
DAV:   4    -0.153383708737E+03    0.43597E+00   -0.61493E+01  1072   0.597E+01    0.183E+01
DAV:   5    -0.151549744646E+03    0.18340E+01   -0.26254E+01   976   0.372E+01    0.942E+00
DAV:   6    -0.151645624328E+03   -0.95880E-01   -0.99741E+00  1072   0.231E+01    0.919E+00
DAV:   7    -0.151216292634E+03    0.42933E+00   -0.51375E+00  1056   0.180E+01    0.696E+00
DAV:   8    -0.151090975874E+03    0.12532E+00   -0.12204E+00   952   0.833E+00    0.542E+00
DAV:   9    -0.150935376204E+03    0.15560E+00   -0.98030E-01  1064   0.637E+00    0.275E+00
DAV:  10    -0.150919149677E+03    0.16227E-01   -0.23481E-01   944   0.353E+00    0.216E+00
DAV:  11    -0.150904354514E+03    0.14795E-01   -0.86840E-02   944   0.204E+00    0.134E+00
DAV:  12    -0.150904117250E+03    0.23726E-03   -0.29504E-02   936   0.121E+00    0.128E+00
DAV:  13    -0.150901353972E+03    0.27633E-02   -0.10884E-02  1048   0.765E-01    0.934E-01
DAV:  14    -0.150899563160E+03    0.17908E-02   -0.90656E-03   952   0.652E-01    0.708E-01
DAV:  15    -0.150898149091E+03    0.14141E-02   -0.11258E-02  1088   0.731E-01    0.419E-01
DAV:  16    -0.150897276234E+03    0.87286E-03   -0.53597E-03  1016   0.516E-01    0.200E-01
DAV:  17    -0.150897268546E+03    0.76878E-05   -0.63110E-04   896   0.167E-01    0.161E-01
DAV:  18    -0.150897238230E+03    0.30317E-04   -0.17845E-04   976   0.100E-01    0.121E-01
DAV:  19    -0.150897205032E+03    0.33198E-04   -0.17398E-04   880   0.935E-02    0.752E-02
DAV:  20    -0.150897193315E+03    0.11717E-04   -0.15184E-04   920   0.808E-02    0.495E-02
DAV:  21    -0.150897178622E+03    0.14693E-04   -0.82752E-05   752   0.790E-02    0.189E-02
DAV:  22    -0.150897177354E+03    0.12682E-05   -0.19608E-05   360   0.427E-02
  11 F= -.15089718E+03 E0= -.15082614E+03  d E =-.491953E+00
       N       E                     dE             d eps       ncg     rms          rms(c)
DAV:   1    -0.153663429279E+03   -0.27663E+01   -0.15213E+02   648   0.713E+01    0.165E+01
DAV:   2    -0.187338844539E+03   -0.33675E+02   -0.29743E+02   976   0.136E+02    0.610E+01
DAV:   3    -0.150623940594E+03    0.36715E+02   -0.13357E+02  1040   0.763E+01    0.100E+01
DAV:   4    -0.152167532997E+03   -0.15436E+01   -0.29752E+01   976   0.372E+01    0.983E+00
DAV:   5    -0.151659825721E+03    0.50771E+00   -0.84089E+00  1080   0.243E+01    0.645E+00
DAV:   6    -0.151408754348E+03    0.25107E+00   -0.32129E+00  1080   0.147E+01    0.321E+00
DAV:   7    -0.151380546464E+03    0.28208E-01   -0.12266E+00   960   0.767E+00    0.299E+00
DAV:   8    -0.151292944156E+03    0.87602E-01   -0.77049E-01   920   0.610E+00    0.138E+00
DAV:   9    -0.151298321523E+03   -0.53774E-02   -0.33885E-01   936   0.435E+00    0.149E+00
DAV:  10    -0.151276111632E+03    0.22210E-01   -0.16282E-01   912   0.315E+00    0.782E-01
DAV:  11    -0.151273993971E+03    0.21177E-02   -0.39049E-02   912   0.140E+00    0.575E-01
DAV:  12    -0.151273386418E+03    0.60755E-03   -0.11530E-02   832   0.732E-01    0.347E-01
DAV:  13    -0.151273466286E+03   -0.79868E-04   -0.10150E-02   896   0.683E-01    0.280E-01
DAV:  14    -0.151273314604E+03    0.15168E-03   -0.71430E-03  1000   0.570E-01    0.214E-01
DAV:  15    -0.151272895941E+03    0.41866E-03   -0.33796E-03   944   0.386E-01    0.891E-02
DAV:  16    -0.151272881108E+03    0.14833E-04   -0.93772E-04   904   0.191E-01    0.805E-02
DAV:  17    -0.151272852174E+03    0.28934E-04   -0.38095E-04   896   0.132E-01    0.468E-02
DAV:  18    -0.151272841639E+03    0.10535E-04   -0.14178E-04   808   0.853E-02    0.338E-02
DAV:  19    -0.151272840811E+03    0.82783E-06   -0.27909E-05   400   0.532E-02
  12 F= -.15127284E+03 E0= -.15120742E+03  d E =-.867616E+00
       N       E                     dE             d eps       ncg     rms          rms(c)
DAV:   1    -0.151832410083E+03   -0.55957E+00   -0.21964E+01   544   0.181E+01    0.338E+00
DAV:   2    -0.153211301370E+03   -0.13789E+01   -0.11694E+01  1064   0.267E+01    0.132E+01
DAV:   3    -0.151764918307E+03    0.14464E+01   -0.83895E+00  1072   0.225E+01    0.307E+00
DAV:   4    -0.151796527726E+03   -0.31609E-01   -0.11977E+00  1048   0.808E+00    0.262E+00
DAV:   5    -0.151760613782E+03    0.35914E-01   -0.44691E-01  1072   0.552E+00    0.157E+00
DAV:   6    -0.151741341890E+03    0.19272E-01   -0.30244E-01   880   0.353E+00    0.830E-01
DAV:   7    -0.151744687531E+03   -0.33456E-02   -0.12222E-01   960   0.224E+00    0.953E-01
DAV:   8    -0.151735522318E+03    0.91652E-02   -0.57252E-02  1040   0.187E+00    0.264E-01
DAV:   9    -0.151735918180E+03   -0.39586E-03   -0.13962E-02   920   0.872E-01    0.311E-01
DAV:  10    -0.151735660279E+03    0.25790E-03   -0.98658E-03   904   0.651E-01    0.254E-01
DAV:  11    -0.151735008304E+03    0.65198E-03   -0.41796E-03   896   0.426E-01    0.710E-02
DAV:  12    -0.151735018996E+03   -0.10693E-04   -0.76108E-04   896   0.182E-01    0.635E-02
DAV:  13    -0.151734984392E+03    0.34604E-04   -0.28411E-04   976   0.135E-01    0.278E-02
DAV:  14    -0.151734989781E+03   -0.53891E-05   -0.12572E-04   792   0.748E-02    0.330E-02
DAV:  15    -0.151734979365E+03    0.10417E-04   -0.61340E-05   520   0.651E-02    0.161E-02
DAV:  16    -0.151734978237E+03    0.11272E-05   -0.23006E-05   352   0.410E-02
  13 F= -.15173498E+03 E0= -.15166831E+03  d E =-.462137E+00
       N       E                     dE             d eps       ncg     rms          rms(c)
DAV:   1    -0.153664136802E+03   -0.19292E+01   -0.20186E+02   544   0.546E+01    0.107E+01
DAV:   2    -0.166708005441E+03   -0.13044E+02   -0.10944E+02  1088   0.873E+01    0.381E+01
DAV:   3    -0.152967077795E+03    0.13741E+02   -0.75190E+01  1048   0.654E+01    0.102E+01
DAV:   4    -0.153171479184E+03   -0.20440E+00   -0.11719E+01  1056   0.236E+01    0.650E+00
DAV:   5    -0.152983825066E+03    0.18765E+00   -0.28482E+00  1000   0.138E+01    0.465E+00
DAV:   6    -0.152887383874E+03    0.96441E-01   -0.27198E+00   928   0.107E+01    0.345E+00
DAV:   7    -0.152850782818E+03    0.36601E-01   -0.13649E+00   928   0.764E+00    0.273E+00
DAV:   8    -0.152781857221E+03    0.68926E-01   -0.63903E-01   920   0.545E+00    0.129E+00
DAV:   9    -0.152781662707E+03    0.19451E-03   -0.13254E-01   944   0.272E+00    0.114E+00
DAV:  10    -0.152774714258E+03    0.69484E-02   -0.99300E-02  1016   0.216E+00    0.610E-01
DAV:  11    -0.152773376945E+03    0.13373E-02   -0.46001E-02   888   0.141E+00    0.460E-01
DAV:  12    -0.152772090168E+03    0.12868E-02   -0.19584E-02  1024   0.942E-01    0.288E-01
DAV:  13    -0.152771331479E+03    0.75869E-03   -0.53577E-03  1032   0.533E-01    0.118E-01
DAV:  14    -0.152771502777E+03   -0.17130E-03   -0.17845E-03   952   0.312E-01    0.153E-01
DAV:  15    -0.152771318485E+03    0.18429E-03   -0.13223E-03  1056   0.279E-01    0.713E-02
DAV:  16    -0.152771303170E+03    0.15315E-04   -0.41601E-04   928   0.146E-01    0.527E-02
DAV:  17    -0.152771285231E+03    0.17939E-04   -0.16276E-04   888   0.962E-02    0.298E-02
DAV:  18    -0.152771278281E+03    0.69494E-05   -0.32892E-05   520   0.447E-02
  14 F= -.15277128E+03 E0= -.15269471E+03  d E =-.149844E+01
       N       E                     dE             d eps       ncg     rms          rms(c)
DAV:   1    -0.154345237265E+03   -0.15740E+01   -0.87628E+02   564   0.120E+02    0.250E+01
DAV:   2    -0.213198945721E+03   -0.58854E+02   -0.50442E+02  1072   0.205E+02    0.733E+01
DAV:   3    -0.156929219083E+03    0.56270E+02   -0.25184E+02  1024   0.924E+01    0.272E+01
DAV:   4    -0.152555860322E+03    0.43734E+01   -0.44146E+01  1072   0.562E+01    0.163E+01
DAV:   5    -0.151620942217E+03    0.93492E+00   -0.21056E+01  1032   0.341E+01    0.102E+01
DAV:   6    -0.151964915634E+03   -0.34397E+00   -0.11908E+01   992   0.269E+01    0.112E+01
DAV:   7    -0.151300848041E+03    0.66407E+00   -0.10491E+01   976   0.205E+01    0.886E+00
DAV:   8    -0.150997866592E+03    0.30298E+00   -0.39138E+00   992   0.126E+01    0.619E+00
DAV:   9    -0.150808320302E+03    0.18955E+00   -0.16137E+00  1040   0.914E+00    0.346E+00
DAV:  10    -0.150753828078E+03    0.54492E-01   -0.40523E-01   968   0.456E+00    0.203E+00
DAV:  11    -0.150768368811E+03   -0.14541E-01   -0.21459E-01   992   0.381E+00    0.245E+00
DAV:  12    -0.150750471594E+03    0.17897E-01   -0.14152E-01   992   0.319E+00    0.163E+00
DAV:  13    -0.150742709997E+03    0.77616E-02   -0.50384E-02  1040   0.164E+00    0.113E+00
DAV:  14    -0.150740625235E+03    0.20848E-02   -0.34582E-02   968   0.122E+00    0.742E-01
DAV:  15    -0.150737624322E+03    0.30009E-02   -0.19564E-02  1040   0.949E-01    0.273E-01
DAV:  16    -0.150737736701E+03   -0.11238E-03   -0.36480E-03   928   0.419E-01    0.236E-01
DAV:  17    -0.150737730771E+03    0.59299E-05   -0.22108E-03  1008   0.322E-01    0.190E-01
DAV:  18    -0.150737571970E+03    0.15880E-03   -0.14392E-03   984   0.248E-01    0.120E-01
DAV:  19    -0.150737543838E+03    0.28132E-04   -0.71344E-04   968   0.183E-01    0.824E-02
DAV:  20    -0.150737493103E+03    0.50735E-04   -0.36890E-04   960   0.129E-01    0.270E-02
DAV:  21    -0.150737494508E+03   -0.14058E-05   -0.59151E-05   616   0.572E-02
  15 F= -.15073749E+03 E0= -.15066061E+03  d E =0.535346E+00
       N       E                     dE             d eps       ncg     rms          rms(c)
DAV:   1    -0.158127308585E+03   -0.73898E+01   -0.66303E+02   544   0.123E+02    0.281E+01
DAV:   2    -0.263604373817E+03   -0.10548E+03   -0.10182E+03  1064   0.227E+02    0.105E+02
DAV:   3    -0.149463537715E+03    0.11414E+03   -0.55207E+02  1016   0.146E+02    0.182E+01
DAV:   4    -0.155322504159E+03   -0.58590E+01   -0.96584E+01   936   0.598E+01    0.166E+01
DAV:   5    -0.154322004126E+03    0.10005E+01   -0.24483E+01  1056   0.376E+01    0.126E+01
DAV:   6    -0.153750765438E+03    0.57124E+00   -0.10197E+01  1080   0.249E+01    0.827E+00
DAV:   7    -0.153119151311E+03    0.63161E+00   -0.49697E+00   952   0.145E+01    0.563E+00
DAV:   8    -0.153134533415E+03   -0.15382E-01   -0.28314E+00  1064   0.115E+01    0.610E+00
DAV:   9    -0.152946434062E+03    0.18810E+00   -0.15427E+00   976   0.942E+00    0.376E+00
DAV:  10    -0.152914255552E+03    0.32179E-01   -0.91049E-01   896   0.635E+00    0.341E+00
DAV:  11    -0.152905740347E+03    0.85152E-02   -0.19341E-01   936   0.327E+00    0.284E+00
DAV:  12    -0.152894011066E+03    0.11729E-01   -0.10722E-01  1056   0.275E+00    0.247E+00
DAV:  13    -0.152883948524E+03    0.10063E-01   -0.12538E-01   952   0.245E+00    0.159E+00
DAV:  14    -0.152874864043E+03    0.90845E-02   -0.68767E-02  1008   0.187E+00    0.900E-01
DAV:  15    -0.152873629507E+03    0.12345E-02   -0.15479E-02   968   0.100E+00    0.726E-01
DAV:  16    -0.152872865419E+03    0.76409E-03   -0.41347E-03   896   0.509E-01    0.613E-01
DAV:  17    -0.152872660377E+03    0.20504E-03   -0.38224E-03  1040   0.461E-01    0.540E-01
DAV:  18    -0.152872093775E+03    0.56660E-03   -0.34411E-03  1008   0.445E-01    0.317E-01
DAV:  19    -0.152871796433E+03    0.29734E-03   -0.15991E-03  1000   0.278E-01    0.166E-01
DAV:  20    -0.152871794065E+03    0.23689E-05   -0.55656E-04   944   0.141E-01    0.118E-01
DAV:  21    -0.152871748439E+03    0.45626E-04   -0.29891E-04   968   0.115E-01    0.484E-02
DAV:  22    -0.152871749982E+03   -0.15433E-05   -0.12028E-04   840   0.802E-02    0.382E-02
DAV:  23    -0.152871741861E+03    0.81209E-05   -0.63792E-05   632   0.654E-02
  16 F= -.15287174E+03 E0= -.15279490E+03  d E =-.159890E+01
       N       E                     dE             d eps       ncg     rms          rms(c)
DAV:   1    -0.153716981662E+03   -0.84523E+00   -0.38823E+01   544   0.237E+01    0.535E+00
DAV:   2    -0.159321832287E+03   -0.56049E+01   -0.38491E+01  1080   0.515E+01    0.250E+01
DAV:   3    -0.153545870830E+03    0.57760E+01   -0.24630E+01  1056   0.411E+01    0.470E+00
DAV:   4    -0.153554429085E+03   -0.85583E-02   -0.24635E+00   904   0.111E+01    0.216E+00
DAV:   5    -0.153553833596E+03    0.59549E-03   -0.43947E-01   952   0.523E+00    0.168E+00
DAV:   6    -0.153545746528E+03    0.80871E-02   -0.26377E-01  1072   0.447E+00    0.159E+00
DAV:   7    -0.153546314985E+03   -0.56846E-03   -0.25368E-01  1088   0.407E+00    0.142E+00
DAV:   8    -0.153532303232E+03    0.14012E-01   -0.18192E-01  1008   0.270E+00    0.813E-01
DAV:   9    -0.153527564785E+03    0.47384E-02   -0.56823E-02   888   0.149E+00    0.440E-01
DAV:  10    -0.153527387175E+03    0.17761E-03   -0.18399E-02  1000   0.871E-01    0.381E-01
DAV:  11    -0.153526233807E+03    0.11534E-02   -0.88347E-03  1056   0.639E-01    0.910E-02
DAV:  12    -0.153526386928E+03   -0.15312E-03   -0.18825E-03  1000   0.291E-01    0.144E-01
DAV:  13    -0.153526204820E+03    0.18211E-03   -0.13540E-03   944   0.240E-01    0.373E-02
DAV:  14    -0.153526228248E+03   -0.23428E-04   -0.30439E-04   920   0.129E-01    0.578E-02
DAV:  15    -0.153526199622E+03    0.28626E-04   -0.16192E-04   768   0.104E-01    0.252E-02
DAV:  16    -0.153526195420E+03    0.42019E-05   -0.36324E-05   488   0.544E-02
  17 F= -.15352620E+03 E0= -.15345306E+03  d E =-.654454E+00
       N       E                     dE             d eps       ncg     rms          rms(c)
DAV:   1    -0.155739418715E+03   -0.22132E+01   -0.26754E+02   552   0.632E+01    0.146E+01
DAV:   2    -0.187394642902E+03   -0.31655E+02   -0.23647E+02  1072   0.146E+02    0.513E+01
DAV:   3    -0.154609692039E+03    0.32785E+02   -0.11576E+02  1040   0.831E+01    0.127E+01
DAV:   4    -0.154619536008E+03   -0.98440E-02   -0.18234E+01   984   0.287E+01    0.696E+00
DAV:   5    -0.154440620019E+03    0.17892E+00   -0.29209E+00   864   0.147E+01    0.388E+00
DAV:   6    -0.154476582932E+03   -0.35963E-01   -0.16998E+00  1016   0.942E+00    0.491E+00
DAV:   7    -0.154429555904E+03    0.47027E-01   -0.15014E+00  1048   0.956E+00    0.392E+00
DAV:   8    -0.154386188137E+03    0.43368E-01   -0.10184E+00   896   0.660E+00    0.306E+00
DAV:   9    -0.154326121646E+03    0.60066E-01   -0.39791E-01  1072   0.477E+00    0.126E+00
DAV:  10    -0.154318649367E+03    0.74723E-02   -0.11863E-01   928   0.241E+00    0.850E-01
DAV:  11    -0.154319382269E+03   -0.73290E-03   -0.38382E-02   920   0.144E+00    0.809E-01
DAV:  12    -0.154316495352E+03    0.28869E-02   -0.19625E-02   984   0.109E+00    0.548E-01
DAV:  13    -0.154316380726E+03    0.11463E-03   -0.85673E-03  1040   0.797E-01    0.489E-01
DAV:  14    -0.154315185031E+03    0.11957E-02   -0.63401E-03  1048   0.653E-01    0.178E-01
DAV:  15    -0.154315040454E+03    0.14458E-03   -0.20698E-03   960   0.320E-01    0.109E-01
DAV:  16    -0.154315043601E+03   -0.31479E-05   -0.57697E-04   976   0.187E-01    0.100E-01
DAV:  17    -0.154315001403E+03    0.42198E-04   -0.23869E-04   936   0.122E-01    0.587E-02
DAV:  18    -0.154314995776E+03    0.56269E-05   -0.13207E-04   872   0.885E-02    0.490E-02
DAV:  19    -0.154314991972E+03    0.38043E-05   -0.98753E-05   848   0.877E-02
  18 F= -.15431499E+03 E0= -.15423765E+03  d E =-.144325E+01
       N       E                     dE             d eps       ncg     rms          rms(c)
DAV:   1    -0.155036895504E+03   -0.72190E+00   -0.35180E+01   628   0.282E+01    0.600E+00
DAV:   2    -0.161779918667E+03   -0.67430E+01   -0.42456E+01  1064   0.531E+01    0.312E+01
DAV:   3    -0.154915337582E+03    0.68646E+01   -0.24845E+01  1080   0.399E+01    0.574E+00
DAV:   4    -0.154894845097E+03    0.20492E-01   -0.42182E+00  1032   0.145E+01    0.307E+00
DAV:   5    -0.154965785729E+03   -0.70941E-01   -0.14158E+00  1072   0.974E+00    0.387E+00
DAV:   6    -0.154847939704E+03    0.11785E+00   -0.72646E-01  1072   0.722E+00    0.116E+00
DAV:   7    -0.154852755584E+03   -0.48159E-02   -0.16483E-01   896   0.296E+00    0.121E+00
DAV:   8    -0.154844140034E+03    0.86155E-02   -0.10471E-01   968   0.215E+00    0.782E-01
DAV:   9    -0.154839574041E+03    0.45660E-02   -0.55291E-02   888   0.152E+00    0.396E-01
DAV:  10    -0.154840172327E+03   -0.59829E-03   -0.15255E-02  1024   0.981E-01    0.490E-01
DAV:  11    -0.154838722735E+03    0.14496E-02   -0.83324E-03  1016   0.802E-01    0.160E-01
DAV:  12    -0.154838892780E+03   -0.17004E-03   -0.33097E-03   992   0.410E-01    0.191E-01
DAV:  13    -0.154838686718E+03    0.20606E-03   -0.20298E-03   952   0.322E-01    0.948E-02
DAV:  14    -0.154838650387E+03    0.36332E-04   -0.91070E-04   992   0.218E-01    0.709E-02
DAV:  15    -0.154838656424E+03   -0.60372E-05   -0.47299E-04  1000   0.166E-01    0.653E-02
DAV:  16    -0.154838623330E+03    0.33093E-04   -0.25927E-04   936   0.118E-01    0.255E-02
DAV:  17    -0.154838618986E+03    0.43443E-05   -0.57641E-05   624   0.553E-02
  19 F= -.15483862E+03 E0= -.15475516E+03  d E =-.523627E+00
       N       E                     dE             d eps       ncg     rms          rms(c)
DAV:   1    -0.157504594246E+03   -0.26660E+01   -0.33927E+02   688   0.942E+01    0.170E+01
DAV:   2    -0.207738708071E+03   -0.50234E+02   -0.36252E+02  1032   0.147E+02    0.748E+01
DAV:   3    -0.155137341940E+03    0.52601E+02   -0.15917E+02  1032   0.846E+01    0.128E+01
DAV:   4    -0.156760109309E+03   -0.16228E+01   -0.38560E+01  1040   0.399E+01    0.130E+01
DAV:   5    -0.156561235534E+03    0.19887E+00   -0.14916E+01  1088   0.293E+01    0.101E+01
DAV:   6    -0.155890665328E+03    0.67057E+00   -0.58555E+00  1080   0.182E+01    0.429E+00
DAV:   7    -0.155859189862E+03    0.31475E-01   -0.18628E+00   920   0.851E+00    0.419E+00
DAV:   8    -0.155737731636E+03    0.12146E+00   -0.80001E-01  1048   0.658E+00    0.203E+00
DAV:   9    -0.155757436317E+03   -0.19705E-01   -0.51058E-01   944   0.482E+00    0.246E+00
DAV:  10    -0.155729175719E+03    0.28261E-01   -0.34788E-01  1024   0.437E+00    0.187E+00
DAV:  11    -0.155715164194E+03    0.14012E-01   -0.14797E-01  1016   0.314E+00    0.120E+00
DAV:  12    -0.155713324548E+03    0.18396E-02   -0.70962E-02  1024   0.198E+00    0.104E+00
DAV:  13    -0.155708655801E+03    0.46687E-02   -0.35421E-02   936   0.141E+00    0.554E-01
DAV:  14    -0.155708918297E+03   -0.26250E-03   -0.22163E-02   928   0.992E-01    0.546E-01
DAV:  15    -0.155707915553E+03    0.10027E-02   -0.12607E-02  1040   0.793E-01    0.316E-01
DAV:  16    -0.155707098383E+03    0.81717E-03   -0.69252E-03   904   0.546E-01    0.969E-02
DAV:  17    -0.155707212010E+03   -0.11363E-03   -0.17044E-03   928   0.273E-01    0.135E-01
DAV:  18    -0.155707082845E+03    0.12916E-03   -0.80627E-04   944   0.193E-01    0.668E-02
DAV:  19    -0.155707073271E+03    0.95742E-05   -0.22918E-04   936   0.106E-01    0.610E-02
DAV:  20    -0.155707067431E+03    0.58402E-05   -0.11023E-04   792   0.796E-02    0.406E-02
DAV:  21    -0.155707059843E+03    0.75876E-05   -0.55176E-05   600   0.495E-02
  20 F= -.15570706E+03 E0= -.15562850E+03  d E =-.139207E+01
       N       E                     dE             d eps       ncg     rms          rms(c)
DAV:   1    -0.155940203837E+03   -0.23314E+00   -0.34530E+01   608   0.272E+01    0.601E+00
DAV:   2    -0.164677445945E+03   -0.87372E+01   -0.51151E+01  1056   0.529E+01    0.388E+01
DAV:   3    -0.155813405137E+03    0.88640E+01   -0.30322E+01  1080   0.369E+01    0.722E+00
DAV:   4    -0.155860433892E+03   -0.47029E-01   -0.56563E+00  1088   0.151E+01    0.428E+00
DAV:   5    -0.155873184490E+03   -0.12751E-01   -0.16289E+00  1088   0.939E+00    0.316E+00
DAV:   6    -0.155778756025E+03    0.94428E-01   -0.69388E-01  1040   0.642E+00    0.111E+00
DAV:   7    -0.155780470969E+03   -0.17149E-02   -0.13664E-01   944   0.258E+00    0.124E+00
DAV:   8    -0.155769423409E+03    0.11048E-01   -0.58336E-02  1016   0.181E+00    0.521E-01
DAV:   9    -0.155770169206E+03   -0.74580E-03   -0.44555E-02   992   0.133E+00    0.676E-01
DAV:  10    -0.155769898969E+03    0.27024E-03   -0.27257E-02  1040   0.130E+00    0.670E-01
DAV:  11    -0.155767706214E+03    0.21928E-02   -0.13412E-02  1048   0.915E-01    0.248E-01
DAV:  12    -0.155767384173E+03    0.32204E-03   -0.43111E-03   960   0.442E-01    0.148E-01
DAV:  13    -0.155767466404E+03   -0.82230E-04   -0.19586E-03   920   0.318E-01    0.131E-01
DAV:  14    -0.155767324563E+03    0.14184E-03   -0.12510E-03   976   0.248E-01    0.601E-02
DAV:  15    -0.155767324361E+03    0.20279E-06   -0.41494E-04   952   0.141E-01    0.505E-02
DAV:  16    -0.155767306123E+03    0.18238E-04   -0.16007E-04   824   0.896E-02    0.243E-02
DAV:  17    -0.155767302117E+03    0.40063E-05   -0.50049E-05   560   0.544E-02
  21 F= -.15576730E+03 E0= -.15569659E+03  d E =-.145231E+01
       N       E                     dE             d eps       ncg     rms          rms(c)
DAV:   1    -0.156360927279E+03   -0.59362E+00   -0.67970E+01   544   0.300E+01    0.319E+00
DAV:   2    -0.157552688750E+03   -0.11918E+01   -0.97723E+00  1032   0.205E+01    0.117E+01
DAV:   3    -0.156520924685E+03    0.10318E+01   -0.57707E+00  1088   0.194E+01    0.369E+00
DAV:   4    -0.156508999310E+03    0.11925E-01   -0.11874E+00  1032   0.801E+00    0.311E+00
DAV:   5    -0.156528756049E+03   -0.19757E-01   -0.95961E-01  1080   0.682E+00    0.349E+00
DAV:   6    -0.156442079449E+03    0.86677E-01   -0.68221E-01  1072   0.549E+00    0.126E+00
DAV:   7    -0.156435884139E+03    0.61953E-02   -0.18689E-01   944   0.285E+00    0.859E-01
DAV:   8    -0.156431866560E+03    0.40176E-02   -0.75554E-02   952   0.200E+00    0.601E-01
DAV:   9    -0.156428746945E+03    0.31196E-02   -0.31499E-02   936   0.125E+00    0.378E-01
DAV:  10    -0.156429086757E+03   -0.33981E-03   -0.10077E-02   968   0.851E-01    0.445E-01
DAV:  11    -0.156428281829E+03    0.80493E-03   -0.53362E-03   976   0.595E-01    0.160E-01
DAV:  12    -0.156428124892E+03    0.15694E-03   -0.22800E-03   960   0.318E-01    0.812E-02
DAV:  13    -0.156428229970E+03   -0.10508E-03   -0.13414E-03  1064   0.259E-01    0.127E-01
DAV:  14    -0.156428100592E+03    0.12938E-03   -0.86032E-04  1088   0.222E-01    0.460E-02
DAV:  15    -0.156428088548E+03    0.12044E-04   -0.12875E-04   864   0.871E-02    0.193E-02
DAV:  16    -0.156428086202E+03    0.23462E-05   -0.21209E-05   376   0.472E-02
  22 F= -.15642809E+03 E0= -.15635742E+03  d E =-.660784E+00
       N       E                     dE             d eps       ncg     rms          rms(c)
DAV:   1    -0.157146307311E+03   -0.71822E+00   -0.64865E+02   544   0.104E+02    0.120E+01
DAV:   2    -0.177085998884E+03   -0.19940E+02   -0.17342E+02  1088   0.937E+01    0.427E+01
DAV:   3    -0.158801282011E+03    0.18285E+02   -0.89671E+01  1080   0.774E+01    0.126E+01
DAV:   4    -0.158199701415E+03    0.60158E+00   -0.15458E+01   912   0.267E+01    0.558E+00
DAV:   5    -0.158478669634E+03   -0.27897E+00   -0.59367E+00   976   0.169E+01    0.945E+00
DAV:   6    -0.158132042965E+03    0.34663E+00   -0.42678E+00  1080   0.152E+01    0.633E+00
DAV:   7    -0.157963826411E+03    0.16822E+00   -0.23953E+00  1080   0.114E+01    0.354E+00
DAV:   8    -0.158146206687E+03   -0.18238E+00   -0.19393E+00  1064   0.958E+00    0.731E+00
DAV:   9    -0.157916885425E+03    0.22932E+00   -0.12162E+00  1088   0.894E+00    0.299E+00
DAV:  10    -0.157884023046E+03    0.32862E-01   -0.42904E-01  1024   0.454E+00    0.141E+00
DAV:  11    -0.157884251645E+03   -0.22860E-03   -0.18027E-01  1048   0.314E+00    0.130E+00
DAV:  12    -0.157873269516E+03    0.10982E-01   -0.98910E-02  1048   0.245E+00    0.648E-01
DAV:  13    -0.157871575277E+03    0.16942E-02   -0.31274E-02   944   0.128E+00    0.373E-01
DAV:  14    -0.157870723578E+03    0.85170E-03   -0.96760E-03   936   0.741E-01    0.183E-01
DAV:  15    -0.157870587036E+03    0.13654E-03   -0.40911E-03   984   0.422E-01    0.159E-01
DAV:  16    -0.157870506427E+03    0.80609E-04   -0.18230E-03   944   0.287E-01    0.121E-01
DAV:  17    -0.157870406783E+03    0.99643E-04   -0.67657E-04   920   0.184E-01    0.486E-02
DAV:  18    -0.157870412036E+03   -0.52522E-05   -0.26734E-04   952   0.109E-01    0.545E-02
DAV:  19    -0.157870391645E+03    0.20390E-04   -0.82337E-05   664   0.681E-02    0.140E-02
DAV:  20    -0.157870392150E+03   -0.50495E-06   -0.21406E-05   384   0.369E-02
  23 F= -.15787039E+03 E0= -.15778949E+03  d E =-.210309E+01
       N       E                     dE             d eps       ncg     rms          rms(c)
DAV:   1    -0.151753362629E+03    0.61170E+01   -0.29453E+03   544   0.271E+02    0.325E+01
DAV:   2    -0.287943142094E+03   -0.13619E+03   -0.13920E+03  1088   0.289E+02    0.115E+02
DAV:   3    -0.177242094392E+03    0.11070E+03   -0.59877E+02   960   0.144E+02    0.453E+01
DAV:   4    -0.165039946314E+03    0.12202E+02   -0.16156E+02  1048   0.833E+01    0.268E+01
DAV:   5    -0.162219966571E+03    0.28200E+01   -0.59229E+01   976   0.558E+01    0.165E+01
DAV:   6    -0.160929471159E+03    0.12905E+01   -0.15399E+01  1032   0.283E+01    0.118E+01
DAV:   7    -0.161167358484E+03   -0.23789E+00   -0.12824E+01  1040   0.244E+01    0.142E+01
DAV:   8    -0.160183340441E+03    0.98402E+00   -0.10821E+01  1040   0.223E+01    0.958E+00
DAV:   9    -0.159908120890E+03    0.27522E+00   -0.88093E+00  1016   0.198E+01    0.868E+00
DAV:  10    -0.160072002874E+03   -0.16388E+00   -0.41015E+00   992   0.162E+01    0.113E+01
DAV:  11    -0.159516601901E+03    0.55540E+00   -0.21834E+00  1064   0.121E+01    0.378E+00
DAV:  12    -0.159506282554E+03    0.10319E-01   -0.69562E-01  1024   0.598E+00    0.292E+00
DAV:  13    -0.159552120687E+03   -0.45838E-01   -0.62930E-01  1064   0.618E+00    0.313E+00
DAV:  14    -0.159480634647E+03    0.71486E-01   -0.51611E-01  1064   0.530E+00    0.152E+00
DAV:  15    -0.159475091181E+03    0.55435E-02   -0.12618E-01   968   0.261E+00    0.106E+00
DAV:  16    -0.159474436616E+03    0.65456E-03   -0.65126E-02  1072   0.177E+00    0.941E-01
DAV:  17    -0.159469893881E+03    0.45427E-02   -0.29692E-02  1032   0.120E+00    0.576E-01
DAV:  18    -0.159470424629E+03   -0.53075E-03   -0.81943E-03   944   0.575E-01    0.528E-01
DAV:  19    -0.159469550857E+03    0.87377E-03   -0.52783E-03  1032   0.503E-01    0.301E-01
DAV:  20    -0.159469486092E+03    0.64765E-04   -0.20396E-03   904   0.302E-01    0.244E-01
DAV:  21    -0.159469304756E+03    0.18134E-03   -0.11115E-03  1008   0.227E-01    0.132E-01
DAV:  22    -0.159469285714E+03    0.19042E-04   -0.16838E-04   896   0.915E-02    0.107E-01
DAV:  23    -0.159469273829E+03    0.11886E-04   -0.99288E-05   864   0.684E-02    0.463E-02
DAV:  24    -0.159469268786E+03    0.50431E-05   -0.82756E-05   656   0.652E-02
  24 F= -.15946927E+03 E0= -.15938799E+03  d E =-.370197E+01
       N       E                     dE             d eps       ncg     rms          rms(c)
DAV:   1    -0.160506434374E+03   -0.10372E+01   -0.13357E+02   544   0.414E+01    0.719E+00
DAV:   2    -0.170040315225E+03   -0.95339E+01   -0.63315E+01  1024   0.585E+01    0.349E+01
DAV:   3    -0.160364206795E+03    0.96761E+01   -0.34999E+01  1056   0.534E+01    0.586E+00
DAV:   4    -0.160523505386E+03   -0.15930E+00   -0.54638E+00   992   0.160E+01    0.521E+00
DAV:   5    -0.160531296136E+03   -0.77907E-02   -0.22349E+00  1072   0.118E+01    0.556E+00
DAV:   6    -0.160382986163E+03    0.14831E+00   -0.15009E+00  1072   0.852E+00    0.279E+00
DAV:   7    -0.160438843554E+03   -0.55857E-01   -0.87045E-01  1024   0.621E+00    0.505E+00
DAV:   8    -0.160360260372E+03    0.78583E-01   -0.49013E-01   992   0.542E+00    0.216E+00
DAV:   9    -0.160341511733E+03    0.18749E-01   -0.23852E-01  1000   0.340E+00    0.145E+00
DAV:  10    -0.160336018670E+03    0.54931E-02   -0.78839E-02   976   0.201E+00    0.937E-01
DAV:  11    -0.160331895224E+03    0.41234E-02   -0.37175E-02  1056   0.139E+00    0.396E-01
DAV:  12    -0.160331204865E+03    0.69036E-03   -0.18046E-02   920   0.911E-01    0.244E-01
DAV:  13    -0.160331475641E+03   -0.27078E-03   -0.84858E-03  1000   0.634E-01    0.285E-01
DAV:  14    -0.160330819175E+03    0.65647E-03   -0.51669E-03  1072   0.494E-01    0.110E-01
DAV:  15    -0.160330780466E+03    0.38709E-04   -0.11551E-03   928   0.233E-01    0.100E-01
DAV:  16    -0.160330758392E+03    0.22074E-04   -0.42498E-04  1072   0.143E-01    0.586E-02
DAV:  17    -0.160330732706E+03    0.25685E-04   -0.26834E-04   896   0.112E-01    0.327E-02
DAV:  18    -0.160330733988E+03   -0.12811E-05   -0.80942E-05   728   0.703E-02
  25 F= -.16033073E+03 E0= -.16024553E+03  d E =-.861465E+00
       N       E                     dE             d eps       ncg     rms          rms(c)
DAV:   1    -0.161129536065E+03   -0.79880E+00   -0.19006E+02   544   0.501E+01    0.891E+00
DAV:   2    -0.174444242397E+03   -0.13315E+02   -0.96466E+01  1072   0.736E+01    0.392E+01
DAV:   3    -0.160889637108E+03    0.13555E+02   -0.48294E+01  1072   0.624E+01    0.728E+00
DAV:   4    -0.161087103164E+03   -0.19747E+00   -0.68569E+00   952   0.189E+01    0.669E+00
DAV:   5    -0.161046596389E+03    0.40507E-01   -0.29413E+00   944   0.143E+01    0.604E+00
DAV:   6    -0.160884189804E+03    0.16241E+00   -0.19096E+00  1016   0.103E+01    0.302E+00
DAV:   7    -0.160981548088E+03   -0.97358E-01   -0.13721E+00  1040   0.826E+00    0.614E+00
DAV:   8    -0.160890581093E+03    0.90967E-01   -0.96614E-01   992   0.729E+00    0.400E+00
DAV:   9    -0.160827568202E+03    0.63013E-01   -0.48039E-01  1048   0.502E+00    0.211E+00
DAV:  10    -0.160814718143E+03    0.12850E-01   -0.14066E-01   944   0.264E+00    0.122E+00
DAV:  11    -0.160807678102E+03    0.70400E-02   -0.58590E-02  1080   0.177E+00    0.481E-01
DAV:  12    -0.160807225641E+03    0.45246E-03   -0.27006E-02  1008   0.123E+00    0.346E-01
DAV:  13    -0.160807008979E+03    0.21666E-03   -0.11799E-02  1000   0.833E-01    0.274E-01
DAV:  14    -0.160806393548E+03    0.61543E-03   -0.63287E-03   936   0.546E-01    0.131E-01
DAV:  15    -0.160806393811E+03   -0.26288E-06   -0.18220E-03   976   0.297E-01    0.139E-01
DAV:  16    -0.160806307454E+03    0.86357E-04   -0.77373E-04  1016   0.212E-01    0.617E-02
DAV:  17    -0.160806275841E+03    0.31613E-04   -0.35998E-04   896   0.132E-01    0.283E-02
DAV:  18    -0.160806275190E+03    0.65070E-06   -0.72884E-05   696   0.676E-02
  26 F= -.16080628E+03 E0= -.16072320E+03  d E =-.133701E+01
       N       E                     dE             d eps       ncg     rms          rms(c)
DAV:   1    -0.162367425180E+03   -0.15611E+01   -0.21043E+01   568   0.182E+01    0.443E+00
DAV:   2    -0.166237993220E+03   -0.38706E+01   -0.27017E+01  1072   0.406E+01    0.218E+01
DAV:   3    -0.162745594081E+03    0.34924E+01   -0.18184E+01  1088   0.324E+01    0.111E+01
DAV:   4    -0.162145481849E+03    0.60011E+00   -0.41415E+00  1040   0.148E+01    0.265E+00
DAV:   5    -0.162180294893E+03   -0.34813E-01   -0.90509E-01  1072   0.732E+00    0.291E+00
DAV:   6    -0.162132992878E+03    0.47302E-01   -0.57109E-01  1088   0.644E+00    0.183E+00
DAV:   7    -0.162122883273E+03    0.10110E-01   -0.25912E-01  1008   0.419E+00    0.172E+00
DAV:   8    -0.162139717379E+03   -0.16834E-01   -0.23773E-01  1032   0.349E+00    0.271E+00
DAV:   9    -0.162112146900E+03    0.27570E-01   -0.15847E-01  1056   0.298E+00    0.777E-01
DAV:  10    -0.162107274402E+03    0.48725E-02   -0.44454E-02   904   0.141E+00    0.214E-01
DAV:  11    -0.162107466448E+03   -0.19205E-03   -0.66958E-03   888   0.574E-01    0.201E-01
DAV:  12    -0.162107116246E+03    0.35020E-03   -0.28852E-03   888   0.407E-01    0.826E-02
DAV:  13    -0.162107255916E+03   -0.13967E-03   -0.14790E-03   952   0.276E-01    0.130E-01
DAV:  14    -0.162107106301E+03    0.14962E-03   -0.90129E-04  1000   0.217E-01    0.456E-02
DAV:  15    -0.162107097796E+03    0.85051E-05   -0.21554E-04   904   0.989E-02    0.290E-02
DAV:  16    -0.162107094462E+03    0.33337E-05   -0.74554E-05   728   0.649E-02
  27 F= -.16210709E+03 E0= -.16202423E+03  d E =-.130082E+01
       N       E                     dE             d eps       ncg     rms          rms(c)
DAV:   1    -0.167128061655E+03   -0.50210E+01   -0.18370E+02   544   0.516E+01    0.122E+01
DAV:   2    -0.190028924844E+03   -0.22901E+02   -0.18471E+02  1064   0.111E+02    0.483E+01
DAV:   3    -0.169613511686E+03    0.20415E+02   -0.10565E+02  1064   0.788E+01    0.251E+01
DAV:   4    -0.165457133546E+03    0.41564E+01   -0.29152E+01  1088   0.402E+01    0.657E+00
DAV:   5    -0.165841310785E+03   -0.38418E+00   -0.76951E+00  1056   0.209E+01    0.896E+00
DAV:   6    -0.165383855505E+03    0.45746E+00   -0.49902E+00  1072   0.185E+01    0.548E+00
DAV:   7    -0.165219223360E+03    0.16463E+00   -0.22282E+00  1016   0.114E+01    0.288E+00
DAV:   8    -0.165313068770E+03   -0.93845E-01   -0.15523E+00  1016   0.893E+00    0.500E+00
DAV:   9    -0.165230163332E+03    0.82905E-01   -0.11682E+00  1080   0.779E+00    0.417E+00
DAV:  10    -0.165148415191E+03    0.81748E-01   -0.35243E-01  1032   0.460E+00    0.857E-01
DAV:  11    -0.165149968451E+03   -0.15533E-02   -0.72337E-02   896   0.183E+00    0.717E-01
DAV:  12    -0.165146691271E+03    0.32772E-02   -0.36149E-02   912   0.136E+00    0.361E-01
DAV:  13    -0.165147889658E+03   -0.11984E-02   -0.22361E-02   952   0.111E+00    0.477E-01
DAV:  14    -0.165146294222E+03    0.15954E-02   -0.12811E-02  1056   0.834E-01    0.221E-01
DAV:  15    -0.165145884406E+03    0.40982E-03   -0.37620E-03   952   0.426E-01    0.126E-01
DAV:  16    -0.165145860317E+03    0.24089E-04   -0.80708E-04  1072   0.201E-01    0.747E-02
DAV:  17    -0.165145825623E+03    0.34693E-04   -0.39014E-04   888   0.132E-01    0.408E-02
DAV:  18    -0.165145829346E+03   -0.37226E-05   -0.13527E-04   872   0.808E-02    0.336E-02
DAV:  19    -0.165145817062E+03    0.12284E-04   -0.64850E-05   592   0.610E-02    0.127E-02
DAV:  20    -0.165145817224E+03   -0.16233E-06   -0.18989E-05   336   0.336E-02
  28 F= -.16514582E+03 E0= -.16505848E+03  d E =-.433954E+01
       N       E                     dE             d eps       ncg     rms          rms(c)
DAV:   1    -0.172229495095E+03   -0.70837E+01   -0.70597E+02   544   0.101E+02    0.223E+01
DAV:   2    -0.218009001963E+03   -0.45780E+02   -0.49051E+02  1064   0.186E+02    0.605E+01
DAV:   3    -0.176208286620E+03    0.41801E+02   -0.22327E+02  1016   0.109E+02    0.311E+01
DAV:   4    -0.168917869100E+03    0.72904E+01   -0.48044E+01  1080   0.579E+01    0.139E+01
DAV:   5    -0.168825144205E+03    0.92725E-01   -0.18837E+01   960   0.341E+01    0.115E+01
DAV:   6    -0.167765143448E+03    0.10600E+01   -0.11302E+01  1048   0.240E+01    0.759E+00
DAV:   7    -0.168530884010E+03   -0.76574E+00   -0.11510E+01  1088   0.239E+01    0.130E+01
DAV:   8    -0.167491054092E+03    0.10398E+01   -0.71206E+00  1088   0.204E+01    0.577E+00
DAV:   9    -0.167306809027E+03    0.18425E+00   -0.16217E+00  1032   0.103E+01    0.302E+00
DAV:  10    -0.167305500521E+03    0.13085E-02   -0.45851E-01  1024   0.555E+00    0.304E+00
DAV:  11    -0.167263441073E+03    0.42059E-01   -0.24602E-01  1040   0.423E+00    0.130E+00
DAV:  12    -0.167271822587E+03   -0.83815E-02   -0.21994E-01   920   0.329E+00    0.130E+00
DAV:  13    -0.167258288948E+03    0.13534E-01   -0.11744E-01  1008   0.247E+00    0.701E-01
DAV:  14    -0.167256444985E+03    0.18440E-02   -0.18051E-02   864   0.897E-01    0.468E-01
DAV:  15    -0.167255554500E+03    0.89049E-03   -0.63054E-03   992   0.551E-01    0.267E-01
DAV:  16    -0.167255306016E+03    0.24848E-03   -0.20740E-03   904   0.319E-01    0.185E-01
DAV:  17    -0.167255259673E+03    0.46343E-04   -0.93588E-04  1072   0.225E-01    0.111E-01
DAV:  18    -0.167255194821E+03    0.64852E-04   -0.68707E-04   920   0.184E-01    0.811E-02
DAV:  19    -0.167255191376E+03    0.34450E-05   -0.26814E-04   944   0.119E-01    0.581E-02
DAV:  20    -0.167255163836E+03    0.27540E-04   -0.15755E-04   848   0.908E-02    0.250E-02
DAV:  21    -0.167255163874E+03   -0.37716E-07   -0.22062E-05   392   0.420E-02
  29 F= -.16725516E+03 E0= -.16719547E+03  d E =-.644889E+01
       N       E                     dE             d eps       ncg     rms          rms(c)
DAV:   1    -0.168456243532E+03   -0.12011E+01   -0.86496E+01   544   0.337E+01    0.580E+00
DAV:   2    -0.176108968806E+03   -0.76527E+01   -0.51308E+01  1088   0.561E+01    0.344E+01
DAV:   3    -0.168560386048E+03    0.75486E+01   -0.29498E+01  1048   0.367E+01    0.611E+00
DAV:   4    -0.168445395737E+03    0.11499E+00   -0.34835E+00   920   0.118E+01    0.262E+00
DAV:   5    -0.168529256346E+03   -0.83861E-01   -0.95245E-01  1040   0.778E+00    0.459E+00
DAV:   6    -0.168423172289E+03    0.10608E+00   -0.72898E-01  1040   0.662E+00    0.181E+00
DAV:   7    -0.168448667031E+03   -0.25495E-01   -0.53143E-01   976   0.515E+00    0.215E+00
DAV:   8    -0.168400258208E+03    0.48409E-01   -0.27723E-01   920   0.388E+00    0.661E-01
DAV:   9    -0.168398267255E+03    0.19910E-02   -0.41344E-02   920   0.150E+00    0.334E-01
DAV:  10    -0.168399082042E+03   -0.81479E-03   -0.11677E-02   976   0.979E-01    0.469E-01
DAV:  11    -0.168397765136E+03    0.13169E-02   -0.71030E-03   976   0.735E-01    0.138E-01
DAV:  12    -0.168397998034E+03   -0.23290E-03   -0.40358E-03   952   0.446E-01    0.181E-01
DAV:  13    -0.168397719177E+03    0.27886E-03   -0.21716E-03   976   0.344E-01    0.828E-02
DAV:  14    -0.168397663406E+03    0.55771E-04   -0.50450E-04   896   0.165E-01    0.356E-02
DAV:  15    -0.168397666671E+03   -0.32648E-05   -0.13317E-04   848   0.851E-02    0.291E-02
DAV:  16    -0.168397658632E+03    0.80391E-05   -0.85971E-05   728   0.678E-02
  30 F= -.16839766E+03 E0= -.16834495E+03  d E =-.114249E+01
       N       E                     dE             d eps       ncg     rms          rms(c)
DAV:   1    -0.169155361379E+03   -0.75769E+00   -0.19424E+02   544   0.528E+01    0.845E+00
DAV:   2    -0.183714250609E+03   -0.14559E+02   -0.10853E+02  1080   0.787E+01    0.449E+01
DAV:   3    -0.169355534557E+03    0.14359E+02   -0.58433E+01  1064   0.508E+01    0.840E+00
DAV:   4    -0.169140112479E+03    0.21542E+00   -0.80699E+00   920   0.172E+01    0.326E+00
DAV:   5    -0.169180008091E+03   -0.39896E-01   -0.13048E+00  1032   0.886E+00    0.454E+00
DAV:   6    -0.169107419745E+03    0.72588E-01   -0.11763E+00  1048   0.837E+00    0.330E+00
DAV:   7    -0.169140091639E+03   -0.32672E-01   -0.95403E-01  1088   0.708E+00    0.308E+00
DAV:   8    -0.169040505162E+03    0.99586E-01   -0.59260E-01   944   0.526E+00    0.686E-01
DAV:   9    -0.169042876610E+03   -0.23714E-02   -0.10488E-01   920   0.228E+00    0.695E-01
DAV:  10    -0.169040626898E+03    0.22497E-02   -0.29713E-02  1000   0.152E+00    0.567E-01
DAV:  11    -0.169038626453E+03    0.20004E-02   -0.12205E-02  1016   0.980E-01    0.174E-01
DAV:  12    -0.169038877427E+03   -0.25097E-03   -0.49501E-03   912   0.480E-01    0.195E-01
DAV:  13    -0.169038479831E+03    0.39760E-03   -0.32655E-03   920   0.383E-01    0.641E-02
DAV:  14    -0.169038499121E+03   -0.19290E-04   -0.55045E-04   920   0.166E-01    0.583E-02
DAV:  15    -0.169038464165E+03    0.34956E-04   -0.27273E-04   864   0.113E-01    0.185E-02
DAV:  16    -0.169038469225E+03   -0.50597E-05   -0.56157E-05   592   0.592E-02
  31 F= -.16903847E+03 E0= -.16896998E+03  d E =-.178331E+01
       N       E                     dE             d eps       ncg     rms          rms(c)
DAV:   1    -0.171790323900E+03   -0.27519E+01   -0.13036E+02   552   0.634E+01    0.205E+01
DAV:   2    -0.212405164673E+03   -0.40615E+02   -0.28409E+02  1008   0.162E+02    0.648E+01
DAV:   3    -0.171565753930E+03    0.40839E+02   -0.14393E+02  1016   0.808E+01    0.198E+01
DAV:   4    -0.170687949406E+03    0.87780E+00   -0.37262E+01  1088   0.443E+01    0.112E+01
DAV:   5    -0.169763967430E+03    0.92398E+00   -0.12249E+01   920   0.249E+01    0.688E+00
DAV:   6    -0.169655334643E+03    0.10863E+00   -0.37333E+00  1088   0.151E+01    0.478E+00
DAV:   7    -0.169626930294E+03    0.28404E-01   -0.93323E-01  1088   0.689E+00    0.474E+00
DAV:   8    -0.169602552446E+03    0.24378E-01   -0.28150E-01  1056   0.516E+00    0.411E+00
DAV:   9    -0.169539458478E+03    0.63094E-01   -0.17628E-01  1056   0.390E+00    0.276E+00
DAV:  10    -0.169521273282E+03    0.18185E-01   -0.11359E-01  1088   0.249E+00    0.186E+00
DAV:  11    -0.169506290492E+03    0.14983E-01   -0.74377E-02  1056   0.225E+00    0.972E-01
DAV:  12    -0.169503706019E+03    0.25845E-02   -0.13696E-02   864   0.111E+00    0.655E-01
DAV:  13    -0.169503434685E+03    0.27133E-03   -0.48653E-03   912   0.461E-01    0.458E-01
DAV:  14    -0.169503131590E+03    0.30309E-03   -0.16426E-03   960   0.299E-01    0.353E-01
DAV:  15    -0.169502899632E+03    0.23196E-03   -0.10466E-03  1056   0.232E-01    0.231E-01
DAV:  16    -0.169502743471E+03    0.15616E-03   -0.88087E-04  1024   0.204E-01    0.159E-01
DAV:  17    -0.169502651037E+03    0.92435E-04   -0.39673E-04  1088   0.147E-01    0.607E-02
DAV:  18    -0.169502634848E+03    0.16188E-04   -0.11605E-04   832   0.730E-02    0.303E-02
DAV:  19    -0.169502633271E+03    0.15773E-05   -0.11252E-05   392   0.306E-02
  32 F= -.16950263E+03 E0= -.16944170E+03  d E =-.464164E+00
       N       E                     dE             d eps       ncg     rms          rms(c)
DAV:   1    -0.169733008602E+03   -0.23037E+00   -0.96873E+00   560   0.187E+01    0.544E+00
DAV:   2    -0.175313643673E+03   -0.55806E+01   -0.32700E+01  1072   0.487E+01    0.292E+01
DAV:   3    -0.169489437161E+03    0.58242E+01   -0.19561E+01  1048   0.334E+01    0.222E+00
DAV:   4    -0.169687497967E+03   -0.19806E+00   -0.20460E+00  1032   0.976E+00    0.420E+00
DAV:   5    -0.169614451373E+03    0.73047E-01   -0.78474E-01  1056   0.830E+00    0.219E+00
DAV:   6    -0.169580840066E+03    0.33611E-01   -0.30240E-01  1064   0.439E+00    0.782E-01
DAV:   7    -0.169580475079E+03    0.36499E-03   -0.86389E-02   888   0.211E+00    0.765E-01
DAV:   8    -0.169574185796E+03    0.62893E-02   -0.37337E-02   896   0.137E+00    0.220E-01
DAV:   9    -0.169574648383E+03   -0.46259E-03   -0.10297E-02   888   0.680E-01    0.286E-01
DAV:  10    -0.169573939608E+03    0.70878E-03   -0.51621E-03   912   0.546E-01    0.123E-01
DAV:  11    -0.169574000294E+03   -0.60686E-04   -0.12724E-03   960   0.336E-01    0.150E-01
DAV:  12    -0.169573873793E+03    0.12650E-03   -0.83127E-04   960   0.261E-01    0.480E-02
DAV:  13    -0.169573878459E+03   -0.46669E-05   -0.30780E-04   856   0.116E-01    0.408E-02
DAV:  14    -0.169573870327E+03    0.81324E-05   -0.86382E-05   744   0.669E-02
  33 F= -.16957387E+03 E0= -.16950888E+03  d E =-.535401E+00
       N       E                     dE             d eps       ncg     rms          rms(c)
DAV:   1    -0.170440766377E+03   -0.86689E+00   -0.80701E+01   544   0.348E+01    0.585E+00
DAV:   2    -0.175801738377E+03   -0.53610E+01   -0.38463E+01  1088   0.496E+01    0.280E+01
DAV:   3    -0.170309662284E+03    0.54921E+01   -0.23291E+01  1080   0.365E+01    0.396E+00
DAV:   4    -0.170383756315E+03   -0.74094E-01   -0.32529E+00   904   0.120E+01    0.304E+00
DAV:   5    -0.170277633980E+03    0.10612E+00   -0.84551E-01   952   0.764E+00    0.155E+00
DAV:   6    -0.170286423722E+03   -0.87897E-02   -0.38928E-01  1080   0.504E+00    0.210E+00
DAV:   7    -0.170278351100E+03    0.80726E-02   -0.22118E-01  1088   0.441E+00    0.175E+00
DAV:   8    -0.170253986775E+03    0.24364E-01   -0.10469E-01  1080   0.284E+00    0.316E-01
DAV:   9    -0.170256102184E+03   -0.21154E-02   -0.34120E-02   880   0.124E+00    0.489E-01
DAV:  10    -0.170253664203E+03    0.24380E-02   -0.14850E-02   864   0.836E-01    0.138E-01
DAV:  11    -0.170253942946E+03   -0.27874E-03   -0.33522E-03  1072   0.468E-01    0.218E-01
DAV:  12    -0.170253707953E+03    0.23499E-03   -0.19677E-03  1072   0.422E-01    0.105E-01
DAV:  13    -0.170253643752E+03    0.64201E-04   -0.77641E-04  1080   0.226E-01    0.598E-02
DAV:  14    -0.170253632742E+03    0.11010E-04   -0.24450E-04  1040   0.117E-01    0.333E-02
DAV:  15    -0.170253623616E+03    0.91257E-05   -0.72644E-05   624   0.685E-02
  34 F= -.17025362E+03 E0= -.17019339E+03  d E =-.679753E+00
       N       E                     dE             d eps       ncg     rms          rms(c)
DAV:   1    -0.170615750505E+03   -0.36212E+00   -0.68451E+01   544   0.317E+01    0.510E+00
DAV:   2    -0.174656922164E+03   -0.40412E+01   -0.28314E+01  1088   0.428E+01    0.243E+01
DAV:   3    -0.170525607178E+03    0.41313E+01   -0.17421E+01  1072   0.327E+01    0.340E+00
DAV:   4    -0.170587345425E+03   -0.61738E-01   -0.25005E+00   920   0.108E+01    0.283E+00
DAV:   5    -0.170501239944E+03    0.86105E-01   -0.75163E-01  1024   0.735E+00    0.187E+00
DAV:   6    -0.170497080474E+03    0.41595E-02   -0.28537E-01  1032   0.478E+00    0.189E+00
DAV:   7    -0.170489090661E+03    0.79898E-02   -0.15454E-01  1024   0.367E+00    0.121E+00
DAV:   8    -0.170474570609E+03    0.14520E-01   -0.93583E-02  1048   0.224E+00    0.316E-01
DAV:   9    -0.170477046538E+03   -0.24759E-02   -0.33130E-02  1016   0.134E+00    0.583E-01
DAV:  10    -0.170474511077E+03    0.25355E-02   -0.18311E-02  1056   0.115E+00    0.301E-01
DAV:  11    -0.170473916129E+03    0.59495E-03   -0.33598E-03   984   0.574E-01    0.896E-02
DAV:  12    -0.170473978665E+03   -0.62536E-04   -0.12239E-03   896   0.242E-01    0.924E-02
DAV:  13    -0.170473902573E+03    0.76091E-04   -0.67991E-04   944   0.185E-01    0.349E-02
DAV:  14    -0.170473916936E+03   -0.14363E-04   -0.19651E-04   864   0.106E-01    0.417E-02
DAV:  15    -0.170473898378E+03    0.18558E-04   -0.11427E-04   744   0.825E-02    0.104E-02
DAV:  16    -0.170473899523E+03   -0.11444E-05   -0.17533E-05   344   0.395E-02
  35 F= -.17047390E+03 E0= -.17041509E+03  d E =-.900029E+00
       N       E                     dE             d eps       ncg     rms          rms(c)
DAV:   1    -0.170809103837E+03   -0.33521E+00   -0.29573E+01   544   0.217E+01    0.373E+00
DAV:   2    -0.173880880439E+03   -0.30718E+01   -0.19634E+01  1080   0.376E+01    0.214E+01
DAV:   3    -0.170790444737E+03    0.30904E+01   -0.13312E+01  1088   0.285E+01    0.325E+00
DAV:   4    -0.170762468886E+03    0.27976E-01   -0.11565E+00   968   0.765E+00    0.127E+00
DAV:   5    -0.170772037660E+03   -0.95688E-02   -0.21992E-01   904   0.425E+00    0.177E+00
DAV:   6    -0.170755876628E+03    0.16161E-01   -0.16724E-01   904   0.400E+00    0.122E+00
DAV:   7    -0.170761950488E+03   -0.60739E-02   -0.13317E-01  1056   0.306E+00    0.137E+00
DAV:   8    -0.170746040237E+03    0.15910E-01   -0.88032E-02  1032   0.217E+00    0.264E-01
DAV:   9    -0.170747257309E+03   -0.12171E-02   -0.19051E-02  1040   0.102E+00    0.436E-01
DAV:  10    -0.170746071063E+03    0.11862E-02   -0.99870E-03  1072   0.889E-01    0.262E-01
DAV:  11    -0.170745597079E+03    0.47398E-03   -0.24054E-03  1008   0.473E-01    0.587E-02
DAV:  12    -0.170745675876E+03   -0.78797E-04   -0.10260E-03   896   0.221E-01    0.888E-02
DAV:  13    -0.170745595464E+03    0.80411E-04   -0.53864E-04   880   0.164E-01    0.263E-02
DAV:  14    -0.170745602338E+03   -0.68734E-05   -0.11246E-04   792   0.794E-02    0.313E-02
DAV:  15    -0.170745593113E+03    0.92241E-05   -0.23808E-05   400   0.581E-02
  36 F= -.17074559E+03 E0= -.17068831E+03  d E =-.271694E+00
       N       E                     dE             d eps       ncg     rms          rms(c)
DAV:   1    -0.170966456669E+03   -0.22085E+00   -0.44018E+01   544   0.267E+01    0.458E+00
DAV:   2    -0.175654581715E+03   -0.46881E+01   -0.29659E+01  1072   0.463E+01    0.262E+01
DAV:   3    -0.170915610693E+03    0.47390E+01   -0.19529E+01  1064   0.344E+01    0.387E+00
DAV:   4    -0.170893874249E+03    0.21736E-01   -0.19154E+00   960   0.942E+00    0.162E+00
DAV:   5    -0.170902436619E+03   -0.85624E-02   -0.39962E-01   952   0.531E+00    0.188E+00
DAV:   6    -0.170883252804E+03    0.19184E-01   -0.26718E-01  1016   0.452E+00    0.156E+00
DAV:   7    -0.170889063143E+03   -0.58103E-02   -0.18054E-01  1048   0.374E+00    0.173E+00
DAV:   8    -0.170868076135E+03    0.20987E-01   -0.11744E-01  1048   0.265E+00    0.477E-01
DAV:   9    -0.170867742705E+03    0.33343E-03   -0.38459E-02   968   0.142E+00    0.420E-01
DAV:  10    -0.170866177245E+03    0.15655E-02   -0.10556E-02  1056   0.802E-01    0.166E-01
DAV:  11    -0.170866029528E+03    0.14772E-03   -0.20936E-03  1024   0.387E-01    0.108E-01
DAV:  12    -0.170866079867E+03   -0.50338E-04   -0.12460E-03  1024   0.308E-01    0.120E-01
DAV:  13    -0.170865959827E+03    0.12004E-03   -0.84541E-04  1024   0.209E-01    0.296E-02
DAV:  14    -0.170865964925E+03   -0.50975E-05   -0.13607E-04   840   0.778E-02    0.304E-02
DAV:  15    -0.170865957185E+03    0.77398E-05   -0.23878E-05   400   0.530E-02
  37 F= -.17086596E+03 E0= -.17080658E+03  d E =-.392058E+00
       N       E                     dE             d eps       ncg     rms          rms(c)
DAV:   1    -0.171192637951E+03   -0.32667E+00   -0.17566E+01   560   0.215E+01    0.623E+00
DAV:   2    -0.177340258363E+03   -0.61476E+01   -0.36313E+01  1072   0.534E+01    0.297E+01
DAV:   3    -0.170945041265E+03    0.63952E+01   -0.25522E+01  1080   0.460E+01    0.380E+00
DAV:   4    -0.171067686991E+03   -0.12265E+00   -0.35728E+00   928   0.123E+01    0.320E+00
DAV:   5    -0.171097885284E+03   -0.30198E-01   -0.91835E-01   928   0.924E+00    0.391E+00
DAV:   6    -0.171008965394E+03    0.88920E-01   -0.42914E-01   928   0.658E+00    0.157E+00
DAV:   7    -0.171002124707E+03    0.68407E-02   -0.16463E-01   992   0.297E+00    0.107E+00
DAV:   8    -0.170993886868E+03    0.82378E-02   -0.82684E-02  1064   0.202E+00    0.515E-01
DAV:   9    -0.170993291811E+03    0.59506E-03   -0.10029E-02   928   0.768E-01    0.361E-01
DAV:  10    -0.170992769122E+03    0.52269E-03   -0.72629E-03  1088   0.658E-01    0.252E-01
DAV:  11    -0.170993067994E+03   -0.29887E-03   -0.49840E-03  1056   0.648E-01    0.307E-01
DAV:  12    -0.170992433153E+03    0.63484E-03   -0.33199E-03  1040   0.495E-01    0.948E-02
DAV:  13    -0.170992423892E+03    0.92607E-05   -0.62428E-04   896   0.172E-01    0.735E-02
DAV:  14    -0.170992419438E+03    0.44543E-05   -0.11631E-04   800   0.816E-02    0.607E-02
DAV:  15    -0.170992410062E+03    0.93760E-05   -0.28089E-05   432   0.571E-02
  38 F= -.17099241E+03 E0= -.17093273E+03  d E =-.126453E+00
       N       E                     dE             d eps       ncg     rms          rms(c)
DAV:   1    -0.171000497697E+03   -0.80783E-02   -0.43869E-01   564   0.351E+00    0.947E-01
DAV:   2    -0.171157690705E+03   -0.15719E+00   -0.87755E-01  1088   0.825E+00    0.518E+00
DAV:   3    -0.170995716714E+03    0.16197E+00   -0.64566E-01  1088   0.732E+00    0.499E-01
DAV:   4    -0.170998604506E+03   -0.28878E-02   -0.62970E-02   944   0.183E+00    0.583E-01
DAV:   5    -0.170998430947E+03    0.17356E-03   -0.21450E-02   976   0.146E+00    0.547E-01
DAV:   6    -0.170996400242E+03    0.20307E-02   -0.12070E-02   976   0.103E+00    0.186E-01
DAV:   7    -0.170996413519E+03   -0.13277E-04   -0.37183E-03   928   0.442E-01    0.166E-01
DAV:   8    -0.170996167362E+03    0.24616E-03   -0.16377E-03   984   0.283E-01    0.423E-02
DAV:   9    -0.170996211259E+03   -0.43897E-04   -0.41099E-04  1024   0.165E-01    0.875E-02
DAV:  10    -0.170996161061E+03    0.50198E-04   -0.26691E-04  1008   0.154E-01    0.214E-02
DAV:  11    -0.170996157601E+03    0.34600E-05   -0.46244E-05   576   0.579E-02
  39 F= -.17099616E+03 E0= -.17093650E+03  d E =-.130200E+00
       N       E                     dE             d eps       ncg     rms          rms(c)
DAV:   1    -0.171077038102E+03   -0.80877E-01   -0.53560E+00   544   0.824E+00    0.111E+00
DAV:   2    -0.171312890476E+03   -0.23585E+00   -0.15087E+00  1088   0.105E+01    0.590E+00
DAV:   3    -0.171080753276E+03    0.23214E+00   -0.93757E-01  1088   0.857E+00    0.895E-01
DAV:   4    -0.171080528215E+03    0.22506E-03   -0.97489E-02   936   0.238E+00    0.661E-01
DAV:   5    -0.171082793115E+03   -0.22649E-02   -0.43068E-02  1056   0.196E+00    0.969E-01
DAV:   6    -0.171076808078E+03    0.59850E-02   -0.37688E-02  1056   0.173E+00    0.300E-01
DAV:   7    -0.171077838346E+03   -0.10303E-02   -0.22255E-02   912   0.999E-01    0.401E-01
DAV:   8    -0.171075960278E+03    0.18781E-02   -0.11133E-02   848   0.719E-01    0.865E-02
DAV:   9    -0.171076038957E+03   -0.78679E-04   -0.14503E-03   904   0.252E-01    0.941E-02
DAV:  10    -0.171075992631E+03    0.46326E-04   -0.60636E-04  1040   0.211E-01    0.579E-02
DAV:  11    -0.171075983110E+03    0.95208E-05   -0.23630E-04   976   0.143E-01    0.446E-02
DAV:  12    -0.171075972791E+03    0.10319E-04   -0.10719E-04   848   0.896E-02    0.214E-02
DAV:  13    -0.171075967003E+03    0.57881E-05   -0.19325E-05   352   0.490E-02
  40 F= -.17107597E+03 E0= -.17101584E+03  d E =-.798094E-01
       N       E                     dE             d eps       ncg     rms          rms(c)
DAV:   1    -0.171206602638E+03   -0.13063E+00   -0.48374E+01   544   0.253E+01    0.335E+00
DAV:   2    -0.173370178924E+03   -0.21636E+01   -0.14522E+01  1088   0.319E+01    0.171E+01
DAV:   3    -0.171233068228E+03    0.21371E+01   -0.88235E+00  1072   0.250E+01    0.259E+00
DAV:   4    -0.171242835666E+03   -0.97674E-02   -0.97809E-01  1000   0.723E+00    0.200E+00
DAV:   5    -0.171252094080E+03   -0.92584E-02   -0.36340E-01  1040   0.553E+00    0.267E+00
DAV:   6    -0.171210215371E+03    0.41879E-01   -0.30441E-01  1040   0.520E+00    0.108E+00
DAV:   7    -0.171217058747E+03   -0.68434E-02   -0.19488E-01  1064   0.323E+00    0.122E+00
DAV:   8    -0.171199767115E+03    0.17292E-01   -0.10073E-01   864   0.223E+00    0.257E-01
DAV:   9    -0.171200594326E+03   -0.82721E-03   -0.15228E-02   912   0.821E-01    0.280E-01
DAV:  10    -0.171200021172E+03    0.57315E-03   -0.55457E-03  1088   0.580E-01    0.141E-01
DAV:  11    -0.171200015131E+03    0.60410E-05   -0.17442E-03  1056   0.372E-01    0.134E-01
DAV:  12    -0.171199922211E+03    0.92920E-04   -0.90432E-04  1048   0.278E-01    0.655E-02
DAV:  13    -0.171199884716E+03    0.37494E-04   -0.33627E-04  1024   0.150E-01    0.242E-02
DAV:  14    -0.171199884140E+03    0.57624E-06   -0.58131E-05   624   0.598E-02
  41 F= -.17119988E+03 E0= -.17114768E+03  d E =-.203727E+00
       N       E                     dE             d eps       ncg     rms          rms(c)
DAV:   1    -0.171203494662E+03   -0.36099E-02   -0.18483E+00   544   0.482E+00    0.619E-01
DAV:   2    -0.171270585875E+03   -0.67091E-01   -0.44074E-01  1088   0.563E+00    0.298E+00
DAV:   3    -0.171204756346E+03    0.65830E-01   -0.27292E-01  1088   0.470E+00    0.494E-01
DAV:   4    -0.171204863771E+03   -0.10743E-03   -0.30279E-02   984   0.138E+00    0.421E-01
DAV:   5    -0.171205378353E+03   -0.51458E-03   -0.15116E-02  1040   0.117E+00    0.554E-01
DAV:   6    -0.171203298965E+03    0.20794E-02   -0.13420E-02  1040   0.106E+00    0.167E-01
DAV:   7    -0.171203512504E+03   -0.21354E-03   -0.60068E-03   936   0.539E-01    0.201E-01
DAV:   8    -0.171203036383E+03    0.47612E-03   -0.28575E-03   864   0.370E-01    0.433E-02
DAV:   9    -0.171203059220E+03   -0.22837E-04   -0.38057E-04   912   0.135E-01    0.463E-02
DAV:  10    -0.171203044538E+03    0.14682E-04   -0.16782E-04   928   0.115E-01    0.278E-02
DAV:  11    -0.171203042976E+03    0.15624E-05   -0.49033E-05   576   0.809E-02
  42 F= -.17120304E+03 E0= -.17115268E+03  d E =-.206885E+00
       N       E                     dE             d eps       ncg     rms          rms(c)
DAV:   1    -0.171266846911E+03   -0.63802E-01   -0.11995E+01   544   0.132E+01    0.167E+00
DAV:   2    -0.171811920591E+03   -0.54507E+00   -0.31802E+00  1088   0.155E+01    0.926E+00
DAV:   3    -0.171273844199E+03    0.53808E+00   -0.20955E+00  1088   0.123E+01    0.974E-01
DAV:   4    -0.171285138546E+03   -0.11294E-01   -0.20547E-01   936   0.325E+00    0.124E+00
DAV:   5    -0.171281132152E+03    0.40064E-02   -0.88354E-02  1040   0.292E+00    0.104E+00
DAV:   6    -0.171273680051E+03    0.74521E-02   -0.75415E-02  1032   0.230E+00    0.429E-01
DAV:   7    -0.171273248513E+03    0.43154E-03   -0.23187E-02   920   0.112E+00    0.362E-01
DAV:   8    -0.171271786813E+03    0.14617E-02   -0.10900E-02  1016   0.738E-01    0.125E-01
DAV:   9    -0.171271963735E+03   -0.17692E-03   -0.27902E-03  1064   0.418E-01    0.168E-01
DAV:  10    -0.171271741012E+03    0.22272E-03   -0.16304E-03  1064   0.362E-01    0.752E-02
DAV:  11    -0.171271709449E+03    0.31563E-04   -0.45971E-04  1016   0.192E-01    0.365E-02
DAV:  12    -0.171271707663E+03    0.17861E-05   -0.12011E-04   808   0.921E-02    0.263E-02
DAV:  13    -0.171271699343E+03    0.83197E-05   -0.36624E-05   512   0.561E-02
  43 F= -.17127170E+03 E0= -.17122568E+03  d E =-.686564E-01
       N       E                     dE             d eps       ncg     rms          rms(c)
DAV:   1    -0.171287941033E+03   -0.16233E-01   -0.83103E+01   544   0.363E+01    0.428E+00
DAV:   2    -0.174754543299E+03   -0.34666E+01   -0.22103E+01  1072   0.397E+01    0.224E+01
DAV:   3    -0.171340250812E+03    0.34143E+01   -0.13092E+01  1072   0.287E+01    0.224E+00
DAV:   4    -0.171399561644E+03   -0.59311E-01   -0.13255E+00   888   0.770E+00    0.208E+00
DAV:   5    -0.171349664152E+03    0.49897E-01   -0.44238E-01   896   0.540E+00    0.104E+00
DAV:   6    -0.171376717579E+03   -0.27053E-01   -0.33537E-01  1088   0.450E+00    0.221E+00
DAV:   7    -0.171341792545E+03    0.34925E-01   -0.20185E-01  1088   0.395E+00    0.903E-01
DAV:   8    -0.171336771963E+03    0.50206E-02   -0.46475E-02  1088   0.185E+00    0.390E-01
DAV:   9    -0.171338183416E+03   -0.14115E-02   -0.20869E-02  1056   0.122E+00    0.562E-01
DAV:  10    -0.171335962041E+03    0.22214E-02   -0.13087E-02  1040   0.104E+00    0.161E-01
DAV:  11    -0.171335854085E+03    0.10796E-03   -0.30958E-03  1048   0.436E-01    0.904E-02
DAV:  12    -0.171335832449E+03    0.21636E-04   -0.92933E-04   928   0.228E-01    0.688E-02
DAV:  13    -0.171335782207E+03    0.50241E-04   -0.40984E-04   904   0.147E-01    0.220E-02
DAV:  14    -0.171335795038E+03   -0.12831E-04   -0.13398E-04   872   0.815E-02    0.331E-02
DAV:  15    -0.171335783199E+03    0.11839E-04   -0.63677E-05   656   0.650E-02    0.978E-03
[...]
DAV:   2    -0.178693306970E+03   -0.24150E+00   -0.22502E+00  1040   0.112E+01    0.503E+00
DAV:   3    -0.178491230010E+03    0.20208E+00   -0.10914E+00  1080   0.943E+00    0.144E+00
DAV:   4    -0.178495891846E+03   -0.46618E-02   -0.19590E-01  1016   0.424E+00    0.142E+00
DAV:   5    -0.178477793172E+03    0.18099E-01   -0.11982E-01  1056   0.327E+00    0.760E-01
DAV:   6    -0.178474466706E+03    0.33265E-02   -0.10288E-01  1088   0.240E+00    0.640E-01
DAV:   7    -0.178473964874E+03    0.50183E-03   -0.34886E-02  1056   0.189E+00    0.685E-01
DAV:   8    -0.178470320148E+03    0.36447E-02   -0.15144E-02  1056   0.123E+00    0.117E-01
DAV:   9    -0.178470423504E+03   -0.10336E-03   -0.28042E-03  1000   0.402E-01    0.123E-01
DAV:  10    -0.178470330157E+03    0.93347E-04   -0.10289E-03  1016   0.297E-01    0.840E-02
DAV:  11    -0.178470297309E+03    0.32848E-04   -0.43066E-04  1024   0.210E-01    0.499E-02
DAV:  12    -0.178470289874E+03    0.74354E-05   -0.12729E-04   944   0.113E-01    0.294E-02
DAV:  13    -0.178470280648E+03    0.92253E-05   -0.60641E-05   656   0.654E-02
 190 F= -.17847028E+03 E0= -.17843116E+03  d E =-.173153E+00
       N       E                     dE             d eps       ncg     rms          rms(c)
DAV:   1    -0.178470761515E+03   -0.47164E-03   -0.24975E-01   552   0.183E+00    0.160E-01
DAV:   2    -0.178472492348E+03   -0.17308E-02   -0.17649E-02   944   0.978E-01    0.392E-01
DAV:   3    -0.178471039197E+03    0.14532E-02   -0.84969E-03  1080   0.772E-01    0.112E-01
DAV:   4    -0.178471212035E+03   -0.17284E-03   -0.20375E-03  1072   0.418E-01    0.188E-01
DAV:   5    -0.178470944460E+03    0.26757E-03   -0.12545E-03  1064   0.361E-01    0.647E-02
DAV:   6    -0.178470927611E+03    0.16849E-04   -0.76425E-04  1040   0.206E-01    0.513E-02
DAV:   7    -0.178470916925E+03    0.10686E-04   -0.25432E-04   992   0.152E-01    0.513E-02
DAV:   8    -0.178470895868E+03    0.21057E-04   -0.90928E-05   880   0.996E-02    0.114E-02
DAV:   9    -0.178470895743E+03    0.12543E-06   -0.16445E-05   360   0.389E-02
 191 F= -.17847090E+03 E0= -.17843193E+03  d E =-.173768E+00
       N       E                     dE             d eps       ncg     rms          rms(c)
DAV:   1    -0.178498609856E+03   -0.27714E-01   -0.17659E+00   544   0.491E+00    0.518E-01
DAV:   2    -0.178536798418E+03   -0.38189E-01   -0.22491E-01  1080   0.441E+00    0.220E+00
DAV:   3    -0.178499998198E+03    0.36800E-01   -0.13024E-01  1056   0.366E+00    0.303E-01
DAV:   4    -0.178500652891E+03   -0.65469E-03   -0.19182E-02   904   0.103E+00    0.321E-01
DAV:   5    -0.178499298849E+03    0.13540E-02   -0.94925E-03   976   0.820E-01    0.137E-01
DAV:   6    -0.178499624931E+03   -0.32608E-03   -0.58045E-03  1064   0.613E-01    0.218E-01
DAV:   7    -0.178499116568E+03    0.50836E-03   -0.29497E-03  1080   0.460E-01    0.790E-02
DAV:   8    -0.178499083435E+03    0.33133E-04   -0.39103E-04  1040   0.192E-01    0.445E-02
DAV:   9    -0.178499089720E+03   -0.62857E-05   -0.19153E-04   976   0.134E-01    0.451E-02
DAV:  10    -0.178499068653E+03    0.21067E-04   -0.13062E-04   816   0.940E-02    0.959E-03
DAV:  11    -0.178499070424E+03   -0.17703E-05   -0.18345E-05   336   0.504E-02
 192 F= -.17849907E+03 E0= -.17846081E+03  d E =-.281747E-01
       N       E                     dE             d eps       ncg     rms          rms(c)
DAV:   1    -0.178518983216E+03   -0.19915E-01   -0.10590E+01   544   0.121E+01    0.127E+00
DAV:   2    -0.178750583143E+03   -0.23160E+00   -0.13726E+00  1064   0.109E+01    0.540E+00
DAV:   3    -0.178527491163E+03    0.22309E+00   -0.79711E-01  1056   0.897E+00    0.744E-01
DAV:   4    -0.178532084847E+03   -0.45937E-02   -0.11879E-01   928   0.255E+00    0.822E-01
DAV:   5    -0.178523712934E+03    0.83719E-02   -0.56444E-02  1016   0.208E+00    0.375E-01
DAV:   6    -0.178525778449E+03   -0.20655E-02   -0.36235E-02  1072   0.162E+00    0.599E-01
DAV:   7    -0.178522694592E+03    0.30839E-02   -0.18161E-02  1056   0.126E+00    0.251E-01
DAV:   8    -0.178522236752E+03    0.45784E-03   -0.29214E-03  1056   0.536E-01    0.832E-02
DAV:   9    -0.178522332236E+03   -0.95484E-04   -0.13126E-03  1008   0.321E-01    0.121E-01
DAV:  10    -0.178522193881E+03    0.13835E-03   -0.90437E-04  1008   0.263E-01    0.369E-02
DAV:  11    -0.178522199606E+03   -0.57253E-05   -0.17086E-04   944   0.135E-01    0.422E-02
DAV:  12    -0.178522185667E+03    0.13940E-04   -0.53868E-05   712   0.871E-02    0.129E-02
DAV:  13    -0.178522185325E+03    0.34198E-06   -0.16942E-05   352   0.374E-02
 193 F= -.17852219E+03 E0= -.17848608E+03  d E =-.512896E-01
       N       E                     dE             d eps       ncg     rms          rms(c)
DAV:   1    -0.178522789964E+03   -0.60430E-03   -0.21036E-01   544   0.168E+00    0.183E-01
DAV:   2    -0.178527877169E+03   -0.50872E-02   -0.28398E-02  1072   0.158E+00    0.806E-01
DAV:   3    -0.178522926890E+03    0.49503E-02   -0.17181E-02  1056   0.134E+00    0.103E-01
DAV:   4    -0.178523011724E+03   -0.84834E-04   -0.24203E-03   928   0.360E-01    0.112E-01
DAV:   5    -0.178522858198E+03    0.15353E-03   -0.12129E-03   992   0.298E-01    0.548E-02
DAV:   6    -0.178522891034E+03   -0.32836E-04   -0.68900E-04  1072   0.233E-01    0.804E-02
DAV:   7    -0.178522831435E+03    0.59598E-04   -0.32831E-04  1048   0.170E-01    0.297E-02
DAV:   8    -0.178522823240E+03    0.81948E-05   -0.27954E-05   448   0.704E-02
 194 F= -.17852282E+03 E0= -.17848639E+03  d E =-.519275E-01
       N       E                     dE             d eps       ncg     rms          rms(c)
DAV:   1    -0.178543300836E+03   -0.20469E-01   -0.11142E+00   568   0.558E+00    0.152E+00
DAV:   2    -0.178951854936E+03   -0.40855E+00   -0.18913E+00  1040   0.138E+01    0.814E+00
DAV:   3    -0.178530498277E+03    0.42136E+00   -0.15042E+00  1072   0.121E+01    0.616E-01
DAV:   4    -0.178536512366E+03   -0.60141E-02   -0.16127E-01   888   0.263E+00    0.720E-01
DAV:   5    -0.178532719300E+03    0.37931E-02   -0.23697E-02   888   0.142E+00    0.336E-01
DAV:   6    -0.178532436488E+03    0.28281E-03   -0.10695E-02   928   0.688E-01    0.293E-01
DAV:   7    -0.178531876824E+03    0.55966E-03   -0.40096E-03  1072   0.518E-01    0.133E-01
DAV:   8    -0.178531844191E+03    0.32634E-04   -0.11921E-03  1024   0.355E-01    0.109E-01
DAV:   9    -0.178531774968E+03    0.69223E-04   -0.61040E-04  1024   0.222E-01    0.464E-02
DAV:  10    -0.178531751808E+03    0.23160E-04   -0.24956E-04   840   0.106E-01    0.170E-02
DAV:  11    -0.178531750868E+03    0.93951E-06   -0.27008E-05   416   0.560E-02
 195 F= -.17853175E+03 E0= -.17849624E+03  d E =-.892763E-02
       N       E                     dE             d eps       ncg     rms          rms(c)
DAV:   1    -0.178532946898E+03   -0.11951E-02   -0.71514E-02   576   0.142E+00    0.383E-01
DAV:   2    -0.178558775100E+03   -0.25828E-01   -0.12169E-01  1032   0.348E+00    0.202E+00
DAV:   3    -0.178532084170E+03    0.26691E-01   -0.90208E-02  1064   0.299E+00    0.130E-01
DAV:   4    -0.178532601098E+03   -0.51693E-03   -0.91227E-03   880   0.633E-01    0.193E-01
DAV:   5    -0.178532306273E+03    0.29483E-03   -0.17782E-03   976   0.407E-01    0.917E-02
DAV:   6    -0.178532285349E+03    0.20924E-04   -0.74984E-04  1056   0.216E-01    0.844E-02
DAV:   7    -0.178532253670E+03    0.31679E-04   -0.22767E-04  1040   0.157E-01    0.487E-02
DAV:   8    -0.178532236561E+03    0.17109E-04   -0.10565E-04   896   0.971E-02    0.148E-02
DAV:   9    -0.178532236616E+03   -0.54545E-07   -0.22273E-05   328   0.452E-02
 196 F= -.17853224E+03 E0= -.17849697E+03  d E =-.941338E-02
       N       E                     dE             d eps       ncg     rms          rms(c)
DAV:   1    -0.178540156715E+03   -0.79202E-02   -0.65072E-01   544   0.325E+00    0.635E-01
DAV:   2    -0.178614310181E+03   -0.74153E-01   -0.37204E-01  1056   0.601E+00    0.337E+00
DAV:   3    -0.178538659466E+03    0.75651E-01   -0.24945E-01  1064   0.487E+00    0.235E-01
DAV:   4    -0.178539959028E+03   -0.12996E-02   -0.21057E-02   856   0.984E-01    0.308E-01
DAV:   5    -0.178539172211E+03    0.78682E-03   -0.56743E-03   984   0.734E-01    0.159E-01
DAV:   6    -0.178539305675E+03   -0.13346E-03   -0.47884E-03  1072   0.576E-01    0.218E-01
DAV:   7    -0.178538976406E+03    0.32927E-03   -0.20266E-03  1040   0.447E-01    0.107E-01
DAV:   8    -0.178538886323E+03    0.90084E-04   -0.63436E-04  1040   0.228E-01    0.398E-02
DAV:   9    -0.178538887092E+03   -0.76976E-06   -0.20324E-04   960   0.105E-01    0.351E-02
DAV:  10    -0.178538873311E+03    0.13781E-04   -0.11619E-04   744   0.705E-02    0.873E-03
DAV:  11    -0.178538874014E+03   -0.70278E-06   -0.10048E-05   320   0.340E-02
 197 F= -.17853887E+03 E0= -.17850410E+03  d E =-.663740E-02
       N       E                     dE             d eps       ncg     rms          rms(c)
DAV:   1    -0.178544992261E+03   -0.61190E-02   -0.23249E+00   544   0.617E+00    0.120E+00
DAV:   2    -0.178811503266E+03   -0.26651E+00   -0.13500E+00  1048   0.114E+01    0.639E+00
DAV:   3    -0.178539280835E+03    0.27222E+00   -0.90717E-01  1048   0.910E+00    0.430E-01
DAV:   4    -0.178544203708E+03   -0.49229E-02   -0.75941E-02   824   0.187E+00    0.575E-01
DAV:   5    -0.178541541713E+03    0.26620E-02   -0.21081E-02   912   0.147E+00    0.317E-01
DAV:   6    -0.178541853618E+03   -0.31191E-03   -0.16034E-02  1040   0.111E+00    0.390E-01
DAV:   7    -0.178540823781E+03    0.10298E-02   -0.65998E-03  1008   0.810E-01    0.198E-01
DAV:   8    -0.178540507608E+03    0.31617E-03   -0.21869E-03  1024   0.419E-01    0.761E-02
DAV:   9    -0.178540521198E+03   -0.13590E-04   -0.83230E-04   928   0.207E-01    0.727E-02
DAV:  10    -0.178540463673E+03    0.57524E-04   -0.53328E-04   840   0.145E-01    0.184E-02
DAV:  11    -0.178540466455E+03   -0.27815E-05   -0.51983E-05   576   0.652E-02
 198 F= -.17854047E+03 E0= -.17850684E+03  d E =-.822984E-02
       N       E                     dE             d eps       ncg     rms          rms(c)
DAV:   1    -0.178542165327E+03   -0.17017E-02   -0.32266E-01   544   0.226E+00    0.446E-01
DAV:   2    -0.178578765127E+03   -0.36600E-01   -0.18080E-01  1048   0.420E+00    0.239E+00
DAV:   3    -0.178541465358E+03    0.37300E-01   -0.12520E-01  1048   0.348E+00    0.179E-01
DAV:   4    -0.178542084278E+03   -0.61892E-03   -0.12061E-02   888   0.719E-01    0.224E-01
DAV:   5    -0.178541686990E+03    0.39729E-03   -0.26472E-03  1008   0.471E-01    0.106E-01
DAV:   6    -0.178541724404E+03   -0.37414E-04   -0.25617E-03  1040   0.361E-01    0.136E-01
DAV:   7    -0.178541601818E+03    0.12259E-03   -0.97875E-04  1040   0.300E-01    0.827E-02
DAV:   8    -0.178541553633E+03    0.48184E-04   -0.29903E-04  1024   0.169E-01    0.289E-02
DAV:   9    -0.178541557172E+03   -0.35387E-05   -0.12254E-04   864   0.879E-02    0.288E-02
DAV:  10    -0.178541546179E+03    0.10993E-04   -0.52255E-05   512   0.625E-02    0.963E-03
DAV:  11    -0.178541546415E+03   -0.23594E-06   -0.13850E-05   296   0.269E-02
 199 F= -.17854155E+03 E0= -.17850748E+03  d E =-.930980E-02
       N       E                     dE             d eps       ncg     rms          rms(c)
DAV:   1    -0.178544922737E+03   -0.33766E-02   -0.34795E-01   544   0.205E+00    0.219E-01
DAV:   2    -0.178550977513E+03   -0.60548E-02   -0.36476E-02  1064   0.172E+00    0.947E-01
DAV:   3    -0.178545121058E+03    0.58565E-02   -0.20829E-02  1056   0.144E+00    0.115E-01
DAV:   4    -0.178545238696E+03   -0.11764E-03   -0.30214E-03   904   0.397E-01    0.141E-01
DAV:   5    -0.178544975802E+03    0.26289E-03   -0.14740E-03  1032   0.343E-01    0.693E-02
DAV:   6    -0.178545002194E+03   -0.26392E-04   -0.12218E-03  1064   0.250E-01    0.929E-02
DAV:   7    -0.178544931520E+03    0.70675E-04   -0.47695E-04  1056   0.193E-01    0.419E-02
DAV:   8    -0.178544918263E+03    0.13256E-04   -0.65479E-05   720   0.963E-02    0.163E-02
DAV:   9    -0.178544922402E+03   -0.41382E-05   -0.58969E-05   616   0.614E-02
 200 F= -.17854492E+03 E0= -.17851157E+03  d E =-.337599E-02
       N       E                     dE             d eps       ncg     rms          rms(c)
DAV:   1    -0.178548914527E+03   -0.39963E-02   -0.28113E+00   544   0.579E+00    0.615E-01
DAV:   2    -0.178595682721E+03   -0.46768E-01   -0.28477E-01  1072   0.480E+00    0.263E+00
DAV:   3    -0.178550546207E+03    0.45137E-01   -0.16396E-01  1048   0.403E+00    0.333E-01
DAV:   4    -0.178551364417E+03   -0.81821E-03   -0.24279E-02   904   0.113E+00    0.395E-01
DAV:   5    -0.178549306553E+03    0.20579E-02   -0.11631E-02  1016   0.947E-01    0.200E-01
DAV:   6    -0.178549428649E+03   -0.12210E-03   -0.10247E-02  1064   0.716E-01    0.252E-01
DAV:   7    -0.178548913167E+03    0.51548E-03   -0.37161E-03  1056   0.539E-01    0.123E-01
DAV:   8    -0.178548811368E+03    0.10180E-03   -0.64433E-04   992   0.275E-01    0.495E-02
DAV:   9    -0.178548828022E+03   -0.16654E-04   -0.34717E-04  1032   0.157E-01    0.624E-02
DAV:  10    -0.178548794235E+03    0.33788E-04   -0.18891E-04   976   0.126E-01    0.199E-02
DAV:  11    -0.178548792889E+03    0.13452E-05   -0.21128E-05   368   0.552E-02
 201 F= -.17854879E+03 E0= -.17851750E+03  d E =-.724647E-02
       N       E                     dE             d eps       ncg     rms          rms(c)
DAV:   1    -0.178553440957E+03   -0.46467E-02   -0.60446E-01   544   0.337E+00    0.746E-01
DAV:   2    -0.178652599049E+03   -0.99158E-01   -0.49312E-01  1040   0.689E+00    0.393E+00
DAV:   3    -0.178550767509E+03    0.10183E+00   -0.34135E-01  1048   0.567E+00    0.250E-01
DAV:   4    -0.178552796642E+03   -0.20291E-02   -0.31674E-02   856   0.120E+00    0.376E-01
DAV:   5    -0.178551590282E+03    0.12064E-02   -0.75393E-03   960   0.868E-01    0.190E-01
DAV:   6    -0.178551558763E+03    0.31519E-04   -0.42262E-03  1008   0.555E-01    0.199E-01
DAV:   7    -0.178551341937E+03    0.21683E-03   -0.15152E-03  1024   0.401E-01    0.112E-01
DAV:   8    -0.178551237190E+03    0.10475E-03   -0.64640E-04  1008   0.232E-01    0.365E-02
DAV:   9    -0.178551240852E+03   -0.36625E-05   -0.25109E-04   912   0.110E-01    0.405E-02
DAV:  10    -0.178551222607E+03    0.18245E-04   -0.14024E-04   800   0.804E-02    0.105E-02
DAV:  11    -0.178551223389E+03   -0.78234E-06   -0.12645E-05   320   0.422E-02
 202 F= -.17855122E+03 E0= -.17852058E+03  d E =-.243050E-02
       N       E                     dE             d eps       ncg     rms          rms(c)
DAV:   1    -0.178551385075E+03   -0.16247E-03   -0.27417E-02   544   0.712E-01    0.159E-01
DAV:   2    -0.178555848232E+03   -0.44632E-02   -0.22125E-02  1040   0.146E+00    0.837E-01
DAV:   3    -0.178551263585E+03    0.45846E-02   -0.15441E-02  1048   0.122E+00    0.556E-02
DAV:   4    -0.178551348951E+03   -0.85366E-04   -0.14703E-03   880   0.258E-01    0.799E-02
DAV:   5    -0.178551293246E+03    0.55705E-04   -0.33441E-04  1000   0.177E-01    0.401E-02
DAV:   6    -0.178551291683E+03    0.15626E-05   -0.20106E-04   984   0.114E-01    0.431E-02
DAV:   7    -0.178551280407E+03    0.11277E-04   -0.64345E-05   856   0.877E-02    0.244E-02
DAV:   8    -0.178551274259E+03    0.61474E-05   -0.18240E-05   328   0.526E-02
 203 F= -.17855127E+03 E0= -.17852076E+03  d E =-.248137E-02
       N       E                     dE             d eps       ncg     rms          rms(c)
DAV:   1    -0.178555195845E+03   -0.39154E-02   -0.63770E-01   544   0.354E+00    0.863E-01
DAV:   2    -0.178697554470E+03   -0.14236E+00   -0.67257E-01  1040   0.823E+00    0.474E+00
DAV:   3    -0.178551553363E+03    0.14600E+00   -0.49659E-01  1064   0.696E+00    0.329E-01
DAV:   4    -0.178553919740E+03   -0.23664E-02   -0.47739E-02   880   0.140E+00    0.423E-01
DAV:   5    -0.178552563314E+03    0.13564E-02   -0.78704E-03   928   0.831E-01    0.191E-01
DAV:   6    -0.178552685249E+03   -0.12194E-03   -0.57245E-03  1072   0.571E-01    0.233E-01
DAV:   7    -0.178552322936E+03    0.36231E-03   -0.24502E-03  1040   0.478E-01    0.119E-01
DAV:   8    -0.178552230774E+03    0.92162E-04   -0.77206E-04  1024   0.264E-01    0.493E-02
DAV:   9    -0.178552231375E+03   -0.60090E-06   -0.32752E-04  1008   0.138E-01    0.421E-02
DAV:  10    -0.178552210811E+03    0.20564E-04   -0.15907E-04   808   0.865E-02    0.124E-02
DAV:  11    -0.178552210466E+03    0.34519E-06   -0.17206E-05   308   0.418E-02
 204 F= -.17855221E+03 E0= -.17852245E+03  d E =-.936207E-03
       N       E                     dE             d eps       ncg     rms          rms(c)
DAV:   1    -0.178552733755E+03   -0.52294E-03   -0.58605E-02   544   0.108E+00    0.261E-01
DAV:   2    -0.178565700093E+03   -0.12966E-01   -0.62460E-02  1032   0.250E+00    0.141E+00
DAV:   3    -0.178552371921E+03    0.13328E-01   -0.44111E-02  1056   0.207E+00    0.862E-02
DAV:   4    -0.178552618634E+03   -0.24671E-03   -0.38243E-03   872   0.405E-01    0.131E-01
DAV:   5    -0.178552481714E+03    0.13692E-03   -0.85611E-04   992   0.289E-01    0.647E-02
DAV:   6    -0.178552482210E+03   -0.49614E-06   -0.54563E-04   984   0.195E-01    0.717E-02
DAV:   7    -0.178552450785E+03    0.31425E-04   -0.20243E-04   968   0.147E-01    0.381E-02
DAV:   8    -0.178552438767E+03    0.12018E-04   -0.81449E-05   840   0.802E-02    0.129E-02
DAV:   9    -0.178552438465E+03    0.30161E-06   -0.25707E-05   368   0.440E-02
 205 F= -.17855244E+03 E0= -.17852247E+03  d E =-.116421E-02
       N       E                     dE             d eps       ncg     rms          rms(c)
DAV:   1    -0.178552792448E+03   -0.35368E-03   -0.40152E-02   544   0.738E-01    0.105E-01
DAV:   2    -0.178554507974E+03   -0.17155E-02   -0.10379E-02  1040   0.914E-01    0.507E-01
DAV:   3    -0.178552817217E+03    0.16908E-02   -0.64868E-03  1048   0.758E-01    0.612E-02
DAV:   4    -0.178552813472E+03    0.37448E-05   -0.55091E-04   896   0.182E-01    0.428E-02
DAV:   5    -0.178552800033E+03    0.13440E-04   -0.19042E-04   840   0.118E-01    0.350E-02
DAV:   6    -0.178552789906E+03    0.10127E-04   -0.20401E-04   880   0.102E-01    0.269E-02
DAV:   7    -0.178552785836E+03    0.40701E-05   -0.40744E-05   608   0.783E-02
 206 F= -.17855279E+03 E0= -.17852284E+03  d E =-.347371E-03
       N       E                     dE             d eps       ncg     rms          rms(c)
DAV:   1    -0.178552871321E+03   -0.81415E-04   -0.26949E-02   544   0.608E-01    0.848E-02
DAV:   2    -0.178553961211E+03   -0.10899E-02   -0.66445E-03  1040   0.729E-01    0.406E-01
DAV:   3    -0.178552887556E+03    0.10737E-02   -0.40981E-03  1040   0.603E-01    0.484E-02
DAV:   4    -0.178552887555E+03    0.85856E-09   -0.35074E-04   904   0.147E-01    0.362E-02
DAV:   5    -0.178552874869E+03    0.12686E-04   -0.11521E-04   768   0.966E-02    0.281E-02
DAV:   6    -0.178552872256E+03    0.26129E-05   -0.13660E-04   880   0.964E-02    0.290E-02
DAV:   7    -0.178552867747E+03    0.45088E-05   -0.36144E-05   576   0.816E-02
 207 F= -.17855287E+03 E0= -.17852295E+03  d E =-.429282E-03
       N       E                     dE             d eps       ncg     rms          rms(c)
DAV:   1    -0.178553205250E+03   -0.33299E-03   -0.22809E-02   600   0.833E-01    0.232E-01
DAV:   2    -0.178563169602E+03   -0.99644E-02   -0.46189E-02  1032   0.214E+00    0.124E+00
DAV:   3    -0.178552851175E+03    0.10318E-01   -0.34742E-02  1064   0.185E+00    0.686E-02
DAV:   4    -0.178553109534E+03   -0.25836E-03   -0.34430E-03   888   0.387E-01    0.140E-01
DAV:   5    -0.178552954383E+03    0.15515E-03   -0.75161E-04  1040   0.262E-01    0.566E-02
DAV:   6    -0.178552956481E+03   -0.20976E-05   -0.25677E-04  1008   0.137E-01    0.581E-02
DAV:   7    -0.178552935403E+03    0.21077E-04   -0.95109E-05   928   0.104E-01    0.211E-02
DAV:   8    -0.178552931925E+03    0.34785E-05   -0.24906E-05   344   0.508E-02
 208 F= -.17855293E+03 E0= -.17852307E+03  d E =-.641779E-04
