<?xml version="1.0" encoding="ISO-8859-1"?>
<modeling>
 <generator>
  <i name="program" type="string">vasp </i>
  <i name="version" type="string">5.4.4.18Apr17-6-g9f103f2a35  </i>
  <i name="subversion" type="string">(build Jul 11 2019 11:52:51) complex            parallel </i>
  <i name="platform" type="string">LinuxIFC </i>
  <i name="date" type="string">2023 11 29 </i>
  <i name="time" type="string">17:20:28 </i>
 </generator>
 <incar>
  <i type="int" name="ISTART">     0</i>
  <i type="string" name="PREC">normal</i>
  <i type="int" name="IBRION">     2</i>
  <i name="EDIFF">      0.00001000</i>
  <i name="EDIFFG">     -0.01000000</i>
  <i type="int" name="NSW">   500</i>
  <i type="int" name="ISIF">     3</i>
  <i name="POTIM">      0.50000000</i>
  <i type="int" name="ISMEAR">     0</i>
  <i name="SIGMA">      0.10000000</i>
  <i name="PSTRESS">      0.00000000</i>
  <i type="logical" name="LWAVE"> F  </i>
  <i type="logical" name="LCHARG"> F  </i>
  <v type="int" name="KPOINT_BSE">    -1     0     0     0</v>
 </incar>
 <structure name="primitive_cell" >
  <crystal>
   <varray name="basis" >
    <v>       6.09657500       0.00000000       0.00000000 </v>
    <v>       0.00000000      10.51755100       0.00000000 </v>
    <v>       0.00000000       0.00000000       4.04035900 </v>
   </varray>
   <i name="volume">    259.07201494 </i>
   <varray name="rec_basis" >
    <v>       0.16402652       0.00000000       0.00000000 </v>
    <v>       0.00000000       0.09507917       0.00000000 </v>
    <v>       0.00000000       0.00000000       0.24750276 </v>
   </varray>
  </crystal>
  <varray name="positions" >
   <v>       0.24856000       0.25012000      -0.49946000 </v>
   <v>       0.25166000       0.25010000      -0.00032000 </v>
   <v>       0.25012000       0.41671000      -0.24988000 </v>
   <v>       0.25010000       0.08351000      -0.24990000 </v>
   <v>      -0.24832000       0.25012000      -0.49946000 </v>
   <v>       0.00012000      -0.49988000      -0.49988000 </v>
   <v>       0.00012000       0.00012000      -0.49988000 </v>
   <v>       0.25012000      -0.41647000       0.25012000 </v>
   <v>      -0.24990000       0.41669000      -0.24990000 </v>
   <v>      -0.24988000       0.08353000      -0.24988000 </v>
   <v>       0.25010000      -0.08331000       0.25010000 </v>
   <v>      -0.49988000      -0.49988000       0.00012000 </v>
   <v>      -0.49988000       0.00012000       0.00012000 </v>
   <v>      -0.25146000       0.25010000      -0.00032000 </v>
   <v>      -0.24990000      -0.41649000       0.25010000 </v>
   <v>      -0.24988000      -0.08329000       0.25012000 </v>
   <v>       0.24854000      -0.24990000       0.49968000 </v>
   <v>       0.25168000      -0.24988000       0.00054000 </v>
   <v>      -0.24834000      -0.24990000       0.49968000 </v>
   <v>      -0.25144000      -0.24988000       0.00054000 </v>
  </varray>
 </structure>
 <varray name="primitive_index" >
  <v type="int" >        1 </v>
  <v type="int" >        6 </v>
  <v type="int" >       12 </v>
  <v type="int" >       20 </v>
  <v type="int" >        3 </v>
  <v type="int" >       15 </v>
  <v type="int" >       18 </v>
  <v type="int" >        9 </v>
  <v type="int" >       10 </v>
  <v type="int" >       14 </v>
  <v type="int" >       13 </v>
  <v type="int" >       16 </v>
  <v type="int" >       17 </v>
  <v type="int" >        8 </v>
  <v type="int" >       11 </v>
  <v type="int" >       19 </v>
  <v type="int" >        4 </v>
  <v type="int" >        7 </v>
  <v type="int" >        2 </v>
  <v type="int" >        5 </v>
 </varray>
 <kpoints>
  <generation param="Gamma">
   <v type="int" name="divisions">       2        1        3 </v>
   <v name="usershift">      0.00000000       0.00000000       0.00000000 </v>
   <v name="genvec1">      0.50000000       0.00000000       0.00000000 </v>
   <v name="genvec2">      0.00000000       1.00000000       0.00000000 </v>
   <v name="genvec3">      0.00000000       0.00000000       0.33333333 </v>
   <v name="shift">      0.00000000       0.00000000       0.00000000 </v>
  </generation>
  <varray name="kpointlist" >
   <v>       0.00000000       0.00000000       0.00000000 </v>
   <v>       0.50000000       0.00000000       0.00000000 </v>
   <v>       0.00000000       0.00000000       0.33333333 </v>
   <v>       0.50000000       0.00000000       0.33333333 </v>
  </varray>
  <varray name="weights" >
   <v>       0.16666667 </v>
   <v>       0.16666667 </v>
   <v>       0.33333333 </v>
   <v>       0.33333333 </v>
  </varray>
 </kpoints>
 <parameters>
  <separator name="general" >
   <i type="string" name="SYSTEM">unknown system</i>
   <i type="logical" name="LCOMPAT"> F  </i>
  </separator>
  <separator name="electronic" >
   <i type="string" name="PREC">normal</i>
   <i name="ENMAX">    267.88200000</i>
   <i name="ENAUG">    511.36800000</i>
   <i name="EDIFF">      0.00001000</i>
   <i type="int" name="IALGO">    38</i>
   <i type="int" name="IWAVPR">    11</i>
   <i type="int" name="NBANDS">    68</i>
   <i name="NELECT">    109.00000000</i>
   <i type="int" name="TURBO">     0</i>
   <i type="int" name="IRESTART">     0</i>
   <i type="int" name="NREBOOT">     0</i>
   <i type="int" name="NMIN">     0</i>
   <i name="EREF">      0.00000000</i>
   <separator name="electronic smearing" >
    <i type="int" name="ISMEAR">     0</i>
    <i name="SIGMA">      0.10000000</i>
    <i name="KSPACING">      0.50000000</i>
    <i type="logical" name="KGAMMA"> T  </i>
   </separator>
   <separator name="electronic projectors" >
    <i type="logical" name="LREAL"> F  </i>
    <v name="ROPT">      0.00000000      0.00000000</v>
    <i type="int" name="LMAXPAW">  -100</i>
    <i type="int" name="LMAXMIX">     2</i>
    <i type="logical" name="NLSPLINE"> F  </i>
   </separator>
   <separator name="electronic startup" >
    <i type="int" name="ISTART">     0</i>
    <i type="int" name="ICHARG">     2</i>
    <i type="int" name="INIWAV">     1</i>
   </separator>
   <separator name="electronic spin" >
    <i type="int" name="ISPIN">     1</i>
    <i type="logical" name="LNONCOLLINEAR"> F  </i>
    <v name="MAGMOM">      1.00000000      1.00000000      1.00000000      1.00000000      1.00000000      1.00000000      1.00000000      1.00000000      1.00000000      1.00000000      1.00000000      1.00000000      1.00000000      1.00000000      1.00000000      1.00000000      1.00000000      1.00000000      1.00000000      1.00000000
</v>
    <i name="NUPDOWN">     -1.00000000</i>
    <i type="logical" name="LSORBIT"> F  </i>
    <v name="SAXIS">      0.00000000      0.00000000      1.00000000</v>
    <i type="logical" name="LSPIRAL"> F  </i>
    <v name="QSPIRAL">      0.00000000      0.00000000      0.00000000</v>
    <i type="logical" name="LZEROZ"> F  </i>
   </separator>
   <separator name="electronic exchange-correlation" >
    <i type="logical" name="LASPH"> F  </i>
    <i type="logical" name="LMETAGGA"> F  </i>
   </separator>
   <separator name="electronic convergence" >
    <i type="int" name="NELM">    60</i>
    <i type="int" name="NELMDL">    -5</i>
    <i type="int" name="NELMIN">     2</i>
    <i name="ENINI">    267.88200000</i>
    <separator name="electronic convergence detail" >
     <i type="logical" name="LDIAG"> T  </i>
     <i type="logical" name="LSUBROT"> F  </i>
     <i name="WEIMIN">      0.00100000</i>
     <i name="EBREAK">      0.00000004</i>
     <i name="DEPER">      0.30000000</i>
     <i type="int" name="NRMM">     4</i>
     <i name="TIME">      0.40000000</i>
    </separator>
   </separator>
   <separator name="electronic mixer" >
    <i name="AMIX">      0.40000000</i>
    <i name="BMIX">      1.00000000</i>
    <i name="AMIN">      0.10000000</i>
    <i name="AMIX_MAG">      1.60000000</i>
    <i name="BMIX_MAG">      1.00000000</i>
    <separator name="electronic mixer details" >
     <i type="int" name="IMIX">     4</i>
     <i type="logical" name="MIXFIRST"> F  </i>
     <i type="int" name="MAXMIX">   -45</i>
     <i name="WC">    100.00000000</i>
     <i type="int" name="INIMIX">     1</i>
     <i type="int" name="MIXPRE">     1</i>
     <i type="int" name="MREMOVE">     5</i>
    </separator>
   </separator>
   <separator name="electronic dipolcorrection" >
    <i type="logical" name="LDIPOL"> F  </i>
    <i type="logical" name="LMONO"> F  </i>
    <i type="int" name="IDIPOL">     0</i>
    <i name="EPSILON">      1.00000000</i>
    <v name="DIPOL">   -100.00000000   -100.00000000   -100.00000000</v>
    <i name="EFIELD">      0.00000000</i>
   </separator>
  </separator>
  <separator name="grids" >
   <i type="int" name="NGX">    24</i>
   <i type="int" name="NGY">    42</i>
   <i type="int" name="NGZ">    16</i>
   <i type="int" name="NGXF">    48</i>
   <i type="int" name="NGYF">    84</i>
   <i type="int" name="NGZF">    32</i>
   <i type="logical" name="ADDGRID"> F  </i>
  </separator>
  <separator name="ionic" >
   <i type="int" name="NSW">   500</i>
   <i type="int" name="IBRION">     2</i>
   <i type="int" name="MDALGO">     0</i>
   <i type="int" name="ISIF">     3</i>
   <i name="PSTRESS">      0.00000000</i>
   <i name="EDIFFG">     -0.01000000</i>
   <i type="int" name="NFREE">     1</i>
   <i name="POTIM">      0.50000000</i>
   <i name="SMASS">     -3.00000000</i>
   <i name="SCALEE">      1.00000000</i>
  </separator>
  <separator name="ionic md" >
   <i name="TEBEG">      0.00010000</i>
   <i name="TEEND">      0.00010000</i>
   <i type="int" name="NBLOCK">     1</i>
   <i type="int" name="KBLOCK">   500</i>
   <i type="int" name="NPACO">   256</i>
   <i name="APACO">     16.00000000</i>
  </separator>
  <separator name="symmetry" >
   <i type="int" name="ISYM">     2</i>
   <i name="SYMPREC">      0.00001000</i>
  </separator>
  <separator name="dos" >
   <i type="int" name="LORBIT">     0</i>
   <v name="RWIGS">     -1.00000000     -1.00000000</v>
   <i type="int" name="NEDOS">   301</i>
   <i name="EMIN">     10.00000000</i>
   <i name="EMAX">    -10.00000000</i>
   <i name="EFERMI">      0.00000000</i>
  </separator>
  <separator name="writing" >
   <i type="int" name="NWRITE">     2</i>
   <i type="logical" name="LWAVE"> F  </i>
   <i type="logical" name="LDOWNSAMPLE"> F  </i>
   <i type="logical" name="LCHARG"> F  </i>
   <i type="logical" name="LPARD"> F  </i>
   <i type="logical" name="LVTOT"> F  </i>
   <i type="logical" name="LVHAR"> F  </i>
   <i type="logical" name="LELF"> F  </i>
   <i type="logical" name="LOPTICS"> F  </i>
   <v name="STM">      0.00000000      0.00000000      0.00000000      0.00000000      0.00000000      0.00000000      0.00000000</v>
  </separator>
  <separator name="performance" >
   <i type="int" name="NPAR">     4</i>
   <i type="int" name="NSIM">     4</i>
   <i type="int" name="NBLK">    -1</i>
   <i type="logical" name="LPLANE"> T  </i>
   <i type="logical" name="LSCALAPACK"> T  </i>
   <i type="logical" name="LSCAAWARE"> F  </i>
   <i type="logical" name="LSCALU"> F  </i>
   <i type="logical" name="LASYNC"> F  </i>
   <i type="logical" name="LORBITALREAL"> F  </i>
  </separator>
  <separator name="miscellaneous" >
   <i type="int" name="IDIOT">     3</i>
   <i type="int" name="ISPECIAL">     0</i>
   <i type="logical" name="LMUSIC"> F  </i>
   <v name="POMASS">     50.94100000     55.84700000</v>
   <v name="DARWINR">      0.00000000      0.00000000</v>
   <v name="DARWINV">      1.00000000      1.00000000</v>
   <i type="logical" name="LCORR"> T  </i>
  </separator>
  <i type="logical" name="GGA_COMPAT"> T  </i>
  <i type="logical" name="LBERRY"> F  </i>
  <i type="int" name="ICORELEVEL">     0</i>
  <i type="logical" name="LDAU"> F  </i>
  <i type="int" name="I_CONSTRAINED_M">     0</i>
  <separator name="electronic exchange-correlation" >
   <i type="string" name="GGA">--</i>
   <i type="int" name="VOSKOWN">     0</i>
   <i type="logical" name="LHFCALC"> F  </i>
   <i type="string" name="PRECFOCK"></i>
   <i type="logical" name="LSYMGRAD"> F  </i>
   <i type="logical" name="LHFONE"> F  </i>
   <i type="logical" name="LRHFCALC"> F  </i>
   <i type="logical" name="LTHOMAS"> F  </i>
   <i type="logical" name="LMODELHF"> F  </i>
   <i name="ENCUT4O">     -1.00000000</i>
   <i type="int" name="EXXOEP">     0</i>
   <i type="int" name="FOURORBIT">     0</i>
   <i name="AEXX">      0.00000000</i>
   <i name="HFALPHA">      0.00000000</i>
   <i name="MCALPHA">      0.00000000</i>
   <i name="ALDAX">      1.00000000</i>
   <i name="AGGAX">      1.00000000</i>
   <i name="ALDAC">      1.00000000</i>
   <i name="AGGAC">      1.00000000</i>
   <i type="int" name="NKREDX">     1</i>
   <i type="int" name="NKREDY">     1</i>
   <i type="int" name="NKREDZ">     1</i>
   <i type="logical" name="SHIFTRED"> F  </i>
   <i type="logical" name="ODDONLY"> F  </i>
   <i type="logical" name="EVENONLY"> F  </i>
   <i type="int" name="LMAXFOCK">     0</i>
   <i type="int" name="NMAXFOCKAE">     0</i>
   <i type="logical" name="LFOCKAEDFT"> F  </i>
   <i name="HFSCREEN">      0.00000000</i>
   <i name="HFSCREENC">      0.00000000</i>
   <i type="int" name="NBANDSGWLOW">     0</i>
  </separator>
  <separator name="vdW DFT" >
   <i type="logical" name="LUSE_VDW"> F  </i>
   <i name="Zab_VDW">     -0.84910000</i>
   <i name="PARAM1">      0.12340000</i>
   <i name="PARAM2">      1.00000000</i>
   <i name="PARAM3">      0.00000000</i>
  </separator>
  <separator name="model GW" >
   <i type="int" name="MODEL_GW">     0</i>
   <i name="MODEL_EPS0">      7.77216045</i>
   <i name="MODEL_ALPHA">      1.00000000</i>
  </separator>
  <separator name="linear response parameters" >
   <i type="logical" name="LEPSILON"> F  </i>
   <i type="logical" name="LRPA"> F  </i>
   <i type="logical" name="LNABLA"> F  </i>
   <i type="logical" name="LVEL"> F  </i>
   <i type="int" name="KINTER">     0</i>
   <i name="CSHIFT">      0.10000000</i>
   <i name="OMEGAMAX">     -1.00000000</i>
   <i name="DEG_THRESHOLD">      0.00200000</i>
   <i name="RTIME">     -0.10000000</i>
   <i name="WPLASMAI">      0.00000000</i>
   <v name="DFIELD">      0.00000000      0.00000000      0.00000000</v>
   <v name="WPLASMA">      0.00000000      0.00000000      0.00000000      0.00000000      0.00000000      0.00000000      0.00000000      0.00000000      0.00000000</v>
  </separator>
  <separator name="orbital magnetization" >
   <i type="logical" name="NUCIND"> F  </i>
   <v name="MAGPOS">      0.00000000      0.00000000      0.00000000</v>
   <i type="logical" name="LNICSALL"> T  </i>
   <i type="logical" name="ORBITALMAG"> F  </i>
   <i type="logical" name="LMAGBLOCH"> F  </i>
   <i type="logical" name="LCHIMAG"> F  </i>
   <i type="logical" name="LGAUGE"> T  </i>
   <i type="int" name="MAGATOM">     0</i>
   <v name="MAGDIPOL">      0.00000000      0.00000000      0.00000000</v>
   <v name="AVECCONST">      0.00000000      0.00000000      0.00000000</v>
  </separator>
  <separator name="response functions" >
   <i type="logical" name="LADDER"> F  </i>
   <i type="logical" name="LRPAFORCE"> F  </i>
   <i type="logical" name="LFXC"> F  </i>
   <i type="logical" name="LHARTREE"> T  </i>
   <i type="int" name="IBSE">     0</i>
   <v type="int" name="KPOINT">    -1     0     0     0</v>
   <i type="logical" name="LTCTE"> F  </i>
   <i type="logical" name="LTETE"> F  </i>
   <i type="logical" name="LTRIPLET"> F  </i>
   <i type="logical" name="LFXCEPS"> F  </i>
   <i type="logical" name="LFXHEG"> F  </i>
   <i type="int" name="NATURALO">     2</i>
   <i type="logical" name="L2ORDER"> F  </i>
   <i type="logical" name="LMP2LT"> F  </i>
   <i type="logical" name="LUSEW"> F  </i>
   <i name="ENCUTGW">     -2.00000000</i>
   <i name="ENCUTGWSOFT">     -2.00000000</i>
   <i name="ENCUTLF">     -1.00000000</i>
   <i type="int" name="LMAXMP2">    -1</i>
   <i name="SCISSOR">      0.00000000</i>
   <i type="int" name="NOMEGA">     0</i>
   <i type="int" name="NOMEGAR">     0</i>
   <i type="int" name="NBANDSGW">    -1</i>
   <i type="int" name="NBANDSO">    -1</i>
   <i type="int" name="NBANDSV">    -1</i>
   <i type="int" name="NELM">     1</i>
   <i type="int" name="NELMHF">     1</i>
   <i type="int" name="DIM">     3</i>
   <i type="int" name="ANTIRES">     0</i>
   <i name="OMEGAMAX">    -30.00000000</i>
   <i name="OMEGAMIN">    -30.00000000</i>
   <i name="OMEGATL">   -200.00000000</i>
   <i type="int" name="OMEGAGRID">   140</i>
   <i name="CSHIFT">     -0.10000000</i>
   <i type="logical" name="SELFENERGY"> F  </i>
   <i type="logical" name="LSPECTRAL"> F  </i>
   <i type="logical" name="LSPECTRALGW"> F  </i>
   <i type="logical" name="LSINGLES"> F  </i>
   <i type="logical" name="LFERMIGW"> F  </i>
   <i type="logical" name="ODDONLYGW"> F  </i>
   <i type="logical" name="EVENONLYGW"> F  </i>
   <i type="int" name="NKREDLFX">     1</i>
   <i type="int" name="NKREDLFY">     1</i>
   <i type="int" name="NKREDLFZ">     1</i>
   <i type="int" name="MAXMEM">  2800</i>
   <i type="int" name="TELESCOPE">     0</i>
   <i type="int" name="TAUPAR">     1</i>
   <i type="int" name="OMEGAPAR">    -1</i>
   <i name="LAMBDA">      1.00000000</i>
  </separator>
  <separator name="External order field" >
   <i name="OFIELD_KAPPA">      0.00000000</i>
   <v name="OFIELD_K">      0.00000000      0.00000000      0.00000000</v>
   <i name="OFIELD_Q6_NEAR">      0.00000000</i>
   <i name="OFIELD_Q6_FAR">      0.00000000</i>
   <i name="OFIELD_A">      0.00000000</i>
  </separator>
 </parameters>
 <atominfo>
  <atoms>      20 </atoms>
  <types>       2 </types>
  <array name="atoms" >
   <dimension dim="1">ion</dimension>
   <field type="string">element</field>
   <field type="int">atomtype</field>
   <set>
    <rc><c>V </c><c>   1</c></rc>
    <rc><c>V </c><c>   1</c></rc>
    <rc><c>V </c><c>   1</c></rc>
    <rc><c>V </c><c>   1</c></rc>
    <rc><c>V </c><c>   1</c></rc>
    <rc><c>V </c><c>   1</c></rc>
    <rc><c>V </c><c>   1</c></rc>
    <rc><c>V </c><c>   1</c></rc>
    <rc><c>V </c><c>   1</c></rc>
    <rc><c>V </c><c>   1</c></rc>
    <rc><c>V </c><c>   1</c></rc>
    <rc><c>V </c><c>   1</c></rc>
    <rc><c>V </c><c>   1</c></rc>
    <rc><c>V </c><c>   1</c></rc>
    <rc><c>V </c><c>   1</c></rc>
    <rc><c>V </c><c>   1</c></rc>
    <rc><c>V </c><c>   1</c></rc>
    <rc><c>Fe</c><c>   2</c></rc>
    <rc><c>Fe</c><c>   2</c></rc>
    <rc><c>Fe</c><c>   2</c></rc>
   </set>
  </array>
  <array name="atomtypes" >
   <dimension dim="1">type</dimension>
   <field type="int">atomspertype</field>
   <field type="string">element</field>
   <field>mass</field>
   <field>valence</field>
   <field type="string">pseudopotential</field>
   <set>
    <rc><c>  17</c><c>V </c><c>     50.94100000</c><c>      5.00000000</c><c>  PAW_PBE V 08Apr2002                   </c></rc>
    <rc><c>   3</c><c>Fe</c><c>     55.84700000</c><c>      8.00000000</c><c>  PAW_PBE Fe 06Sep2000                  </c></rc>
   </set>
  </array>
 </atominfo>
 <structure name="initialpos" >
  <crystal>
   <varray name="basis" >
    <v>       6.09657500       0.00000000       0.00000000 </v>
    <v>       0.00000000      10.51755100       0.00000000 </v>
    <v>       0.00000000       0.00000000       4.04035900 </v>
   </varray>
   <i name="volume">    259.07201494 </i>
   <varray name="rec_basis" >
    <v>       0.16402652       0.00000000       0.00000000 </v>
    <v>       0.00000000       0.09507917       0.00000000 </v>
    <v>       0.00000000       0.00000000       0.24750276 </v>
   </varray>
  </crystal>
  <varray name="positions" >
   <v>       0.24856000       0.25012000       0.50054000 </v>
   <v>       0.75166000       0.75010000       0.49968000 </v>
   <v>       0.75168000       0.25012000       0.50054000 </v>
   <v>       0.24854000       0.75010000       0.49968000 </v>
   <v>       0.74856000       0.75012000       0.00054000 </v>
   <v>       0.25166000       0.25010000       0.99968000 </v>
   <v>       0.25168000       0.75012000       0.00054000 </v>
   <v>       0.74854000       0.25010000       0.99968000 </v>
   <v>       0.25012000       0.58353000       0.25012000 </v>
   <v>       0.75010000       0.41669000       0.75010000 </v>
   <v>       0.75010000       0.58351000       0.25010000 </v>
   <v>       0.25012000       0.41671000       0.75012000 </v>
   <v>       0.25010000       0.91669000       0.25010000 </v>
   <v>       0.75012000       0.08353000       0.75012000 </v>
   <v>       0.00012000       0.50012000       0.50012000 </v>
   <v>       0.50012000       0.50012000       0.00012000 </v>
   <v>       0.50012000       0.00012000       0.00012000 </v>
   <v>       0.00012000       0.00012000       0.50012000 </v>
   <v>       0.75012000       0.91671000       0.25012000 </v>
   <v>       0.25010000       0.08351000       0.75010000 </v>
  </varray>
 </structure>
 <calculation>
  <scstep>
   <time name="dav">    0.29    0.29</time>
   <time name="total">    0.31    0.31</time>
   <energy>
    <i name="alphaZ">    552.45271439 </i>
    <i name="ewald">  -4786.41069834 </i>
    <i name="hartreedc">  -1132.72855659 </i>
    <i name="XCdc">   -770.07914952 </i>
    <i name="pawpsdc">   5171.05454107 </i>
    <i name="pawaedc">  -4356.08836938 </i>
    <i name="eentropy">     -0.08971215 </i>
    <i name="bandstr">   1358.39131613 </i>
    <i name="atom">   4687.48422623 </i>
    <i name="e_fr_energy">    723.98631184 </i>
    <i name="e_wo_entrp">    724.07602400 </i>
    <i name="e_0_energy">    724.03116792 </i>
   </energy>
  </scstep>
  <scstep>
   <time name="dav">    0.28    0.28</time>
   <time name="total">    0.28    0.28</time>
   <energy>
    <i name="e_fr_energy">      6.00893399 </i>
    <i name="e_wo_entrp">      6.08916022 </i>
    <i name="e_0_energy">      6.04904711 </i>
   </energy>
  </scstep>
  <scstep>
   <time name="dav">    0.43    0.43</time>
   <time name="total">    0.43    0.43</time>
   <energy>
    <i name="e_fr_energy">   -132.07514654 </i>
    <i name="e_wo_entrp">   -131.98849615 </i>
    <i name="e_0_energy">   -132.03182134 </i>
   </energy>
  </scstep>
  <scstep>
   <time name="dav">    0.41    0.41</time>
   <time name="total">    0.41    0.41</time>
   <energy>
    <i name="e_fr_energy">   -147.88952118 </i>
    <i name="e_wo_entrp">   -147.80009911 </i>
    <i name="e_0_energy">   -147.84481014 </i>
   </energy>
  </scstep>
  <scstep>
   <time name="dav">    0.42    0.42</time>
   <time name="total">    0.43    0.43</time>
   <energy>
    <i name="e_fr_energy">   -148.87673537 </i>
    <i name="e_wo_entrp">   -148.77585370 </i>
    <i name="e_0_energy">   -148.82629453 </i>
   </energy>
  </scstep>
  <scstep>
   <time name="dav">    0.48    0.48</time>
   <time name="total">    0.51    0.51</time>
   <energy>
    <i name="e_fr_energy">   -212.34792805 </i>
    <i name="e_wo_entrp">   -212.25744049 </i>
    <i name="e_0_energy">   -212.30268427 </i>
   </energy>
  </scstep>
  <scstep>
   <time name="dav">    0.46    0.46</time>
   <time name="total">    0.48    0.49</time>
   <energy>
    <i name="e_fr_energy">   -147.58799823 </i>
    <i name="e_wo_entrp">   -147.49771441 </i>
    <i name="e_0_energy">   -147.54285632 </i>
   </energy>
  </scstep>
  <scstep>
   <time name="dav">    0.47    0.47</time>
   <time name="total">    0.50    0.50</time>
   <energy>
    <i name="e_fr_energy">   -166.10674608 </i>
    <i name="e_wo_entrp">   -165.99479373 </i>
    <i name="e_0_energy">   -166.05076991 </i>
   </energy>
  </scstep>
  <scstep>
   <time name="dav">    0.44    0.44</time>
   <time name="total">    0.47    0.47</time>
   <energy>
    <i name="e_fr_energy">   -144.17323108 </i>
    <i name="e_wo_entrp">   -144.06746786 </i>
    <i name="e_0_energy">   -144.12034947 </i>
   </energy>
  </scstep>
  <scstep>
   <time name="dav">    0.46    0.46</time>
   <time name="total">    0.49    0.49</time>
   <energy>
    <i name="e_fr_energy">   -142.04620989 </i>
    <i name="e_wo_entrp">   -141.96757212 </i>
    <i name="e_0_energy">   -142.00689100 </i>
   </energy>
  </scstep>
  <scstep>
   <time name="dav">    0.46    0.46</time>
   <time name="total">    0.49    0.49</time>
   <energy>
    <i name="e_fr_energy">   -140.12907025 </i>
    <i name="e_wo_entrp">   -140.03620757 </i>
    <i name="e_0_energy">   -140.08263891 </i>
   </energy>
  </scstep>
  <scstep>
   <time name="dav">    0.45    0.45</time>
   <time name="total">    0.48    0.48</time>
   <energy>
    <i name="e_fr_energy">   -139.69464850 </i>
    <i name="e_wo_entrp">   -139.59673929 </i>
    <i name="e_0_energy">   -139.64569389 </i>
   </energy>
  </scstep>
  <scstep>
   <time name="dav">    0.44    0.44</time>
   <time name="total">    0.47    0.47</time>
   <energy>
    <i name="e_fr_energy">   -139.87520446 </i>
    <i name="e_wo_entrp">   -139.78191401 </i>
    <i name="e_0_energy">   -139.82855923 </i>
   </energy>
  </scstep>
  <scstep>
   <time name="dav">    0.46    0.46</time>
   <time name="total">    0.49    0.49</time>
   <energy>
    <i name="e_fr_energy">   -139.93136604 </i>
    <i name="e_wo_entrp">   -139.83283599 </i>
    <i name="e_0_energy">   -139.88210101 </i>
   </energy>
  </scstep>
  <scstep>
   <time name="dav">    0.46    0.46</time>
   <time name="total">    0.49    0.49</time>
   <energy>
    <i name="e_fr_energy">   -139.76845306 </i>
    <i name="e_wo_entrp">   -139.67386750 </i>
    <i name="e_0_energy">   -139.72116028 </i>
   </energy>
  </scstep>
  <scstep>
   <time name="dav">    0.43    0.43</time>
   <time name="total">    0.46    0.46</time>
   <energy>
    <i name="e_fr_energy">   -139.62176955 </i>
    <i name="e_wo_entrp">   -139.52918387 </i>
    <i name="e_0_energy">   -139.57547671 </i>
   </energy>
  </scstep>
  <scstep>
   <time name="dav">    0.43    0.43</time>
   <time name="total">    0.46    0.46</time>
   <energy>
    <i name="e_fr_energy">   -139.48987046 </i>
    <i name="e_wo_entrp">   -139.39059864 </i>
    <i name="e_0_energy">   -139.44023455 </i>
   </energy>
  </scstep>
  <scstep>
   <time name="dav">    0.34    0.34</time>
   <time name="total">    0.37    0.37</time>
   <energy>
    <i name="e_fr_energy">   -139.48426130 </i>
    <i name="e_wo_entrp">   -139.38406916 </i>
    <i name="e_0_energy">   -139.43416523 </i>
   </energy>
  </scstep>
  <scstep>
   <time name="dav">    0.41    0.42</time>
   <time name="total">    0.44    0.45</time>
   <energy>
    <i name="e_fr_energy">   -139.48080198 </i>
    <i name="e_wo_entrp">   -139.38044718 </i>
    <i name="e_0_energy">   -139.43062458 </i>
   </energy>
  </scstep>
  <scstep>
   <time name="dav">    0.47    0.47</time>
   <time name="total">    0.50    0.50</time>
   <energy>
    <i name="e_fr_energy">   -139.44220292 </i>
    <i name="e_wo_entrp">   -139.34016149 </i>
    <i name="e_0_energy">   -139.39118220 </i>
   </energy>
  </scstep>
  <scstep>
   <time name="dav">    0.49    0.49</time>
   <time name="total">    0.52    0.52</time>
   <energy>
    <i name="e_fr_energy">   -139.39059276 </i>
    <i name="e_wo_entrp">   -139.28750063 </i>
    <i name="e_0_energy">   -139.33904670 </i>
   </energy>
  </scstep>
  <scstep>
   <time name="dav">    0.39    0.39</time>
   <time name="total">    0.43    0.43</time>
   <energy>
    <i name="e_fr_energy">   -139.38930998 </i>
    <i name="e_wo_entrp">   -139.28606142 </i>
    <i name="e_0_energy">   -139.33768570 </i>
   </energy>
  </scstep>
  <scstep>
   <time name="dav">    0.38    0.39</time>
   <time name="total">    0.42    0.42</time>
   <energy>
    <i name="e_fr_energy">   -139.38745363 </i>
    <i name="e_wo_entrp">   -139.28398743 </i>
    <i name="e_0_energy">   -139.33572053 </i>
   </energy>
  </scstep>
  <scstep>
   <time name="dav">    0.41    0.41</time>
   <time name="total">    0.44    0.44</time>
   <energy>
    <i name="e_fr_energy">   -139.38638933 </i>
    <i name="e_wo_entrp">   -139.28292340 </i>
    <i name="e_0_energy">   -139.33465637 </i>
   </energy>
  </scstep>
  <scstep>
   <time name="dav">    0.48    0.48</time>
   <time name="total">    0.51    0.51</time>
   <energy>
    <i name="e_fr_energy">   -139.38348264 </i>
    <i name="e_wo_entrp">   -139.27994121 </i>
    <i name="e_0_energy">   -139.33171193 </i>
   </energy>
  </scstep>
  <scstep>
   <time name="dav">    0.45    0.45</time>
   <time name="total">    0.48    0.48</time>
   <energy>
    <i name="e_fr_energy">   -139.38176867 </i>
    <i name="e_wo_entrp">   -139.27829128 </i>
    <i name="e_0_energy">   -139.33002998 </i>
   </energy>
  </scstep>
  <scstep>
   <time name="dav">    0.42    0.42</time>
   <time name="total">    0.45    0.46</time>
   <energy>
    <i name="e_fr_energy">   -139.38143049 </i>
    <i name="e_wo_entrp">   -139.27803055 </i>
    <i name="e_0_energy">   -139.32973052 </i>
   </energy>
  </scstep>
  <scstep>
   <time name="dav">    0.42    0.42</time>
   <time name="total">    0.45    0.45</time>
   <energy>
    <i name="e_fr_energy">   -139.38135924 </i>
    <i name="e_wo_entrp">   -139.27792840 </i>
    <i name="e_0_energy">   -139.32964382 </i>
   </energy>
  </scstep>
  <scstep>
   <time name="dav">    0.37    0.37</time>
   <time name="total">    0.40    0.40</time>
   <energy>
    <i name="e_fr_energy">   -139.38136329 </i>
    <i name="e_wo_entrp">   -139.27797366 </i>
    <i name="e_0_energy">   -139.32966848 </i>
   </energy>
  </scstep>
  <scstep>
   <time name="dav">    0.28    0.28</time>
   <time name="total">    0.30    0.30</time>
   <energy>
    <i name="alphaZ">    552.45271439 </i>
    <i name="ewald">  -4786.41069834 </i>
    <i name="hartreedc">  -1064.42427061 </i>
    <i name="XCdc">   -768.74520713 </i>
    <i name="pawpsdc">   9737.36627011 </i>
    <i name="pawaedc">  -8941.91791949 </i>
    <i name="eentropy">     -0.10339412 </i>
    <i name="bandstr">    444.91691592 </i>
    <i name="atom">   4687.48422623 </i>
    <i name="e_fr_energy">   -139.38136304 </i>
    <i name="e_wo_entrp">   -139.27796892 </i>
    <i name="e_0_energy">   -139.32966598 </i>
   </energy>
  </scstep>
  <structure>
   <crystal>
    <varray name="basis" >
     <v>       6.09657500       0.00000000       0.00000000 </v>
     <v>       0.00000000      10.51755100       0.00000000 </v>
     <v>       0.00000000       0.00000000       4.04035900 </v>
    </varray>
    <i name="volume">    259.07201494 </i>
    <varray name="rec_basis" >
     <v>       0.16402652       0.00000000       0.00000000 </v>
     <v>       0.00000000       0.09507917       0.00000000 </v>
     <v>       0.00000000       0.00000000       0.24750276 </v>
    </varray>
   </crystal>
   <varray name="positions" >
    <v>       0.24856000       0.25012000       0.50054000 </v>
    <v>       0.75166000       0.75010000       0.49968000 </v>
    <v>       0.75168000       0.25012000       0.50054000 </v>
    <v>       0.24854000       0.75010000       0.49968000 </v>
    <v>       0.74856000       0.75012000       0.00054000 </v>
    <v>       0.25166000       0.25010000       0.99968000 </v>
    <v>       0.25168000       0.75012000       0.00054000 </v>
    <v>       0.74854000       0.25010000       0.99968000 </v>
    <v>       0.25012000       0.58353000       0.25012000 </v>
    <v>       0.75010000       0.41669000       0.75010000 </v>
    <v>       0.75010000       0.58351000       0.25010000 </v>
    <v>       0.25012000       0.41671000       0.75012000 </v>
    <v>       0.25010000       0.91669000       0.25010000 </v>
    <v>       0.75012000       0.08353000       0.75012000 </v>
    <v>       0.00012000       0.50012000       0.50012000 </v>
    <v>       0.50012000       0.50012000       0.00012000 </v>
    <v>       0.50012000       0.00012000       0.00012000 </v>
    <v>       0.00012000       0.00012000       0.50012000 </v>
    <v>       0.75012000       0.91671000       0.25012000 </v>
    <v>       0.25010000       0.08351000       0.75010000 </v>
   </varray>
  </structure>
  <varray name="forces" >
   <v>       0.04779240      -0.27907090      -2.95788521 </v>
   <v>      -0.04794824       0.27739152       2.95697492 </v>
   <v>       0.03705484       0.36746785      -2.32181636 </v>
   <v>      -0.03639502      -0.36638891       2.32278097 </v>
   <v>       0.20126423       0.30828212      -2.85614437 </v>
   <v>      -0.20110926      -0.31083383       2.85659624 </v>
   <v>      -0.10717148      -0.15826491      -2.32004299 </v>
   <v>       0.10672395       0.15985453       2.31925622 </v>
   <v>       0.27913663      -1.44824711       0.02191742 </v>
   <v>      -0.27912513       1.44615818      -0.02236962 </v>
   <v>      -0.07101589      -2.45751521       0.05296023 </v>
   <v>       0.07146647       2.45876224      -0.05234730 </v>
   <v>      -0.45194909       2.42950213       0.12513175 </v>
   <v>       0.45189575      -2.42717787      -0.12587107 </v>
   <v>      -0.00185685       0.00036920       0.00051594 </v>
   <v>       0.00074241       0.00018380      -0.00051712 </v>
   <v>      -0.00159915       0.00021115       0.00049994 </v>
   <v>      -0.00058360      -0.00112948      -0.00118531 </v>
   <v>      -0.17926356       2.33864868       0.00575778 </v>
   <v>       0.18194058      -2.33820316      -0.00421205 </v>
  </varray>
  <varray name="stress" >
   <v>     172.07206657       6.48101812      -8.69946064 </v>
   <v>       6.48101801     414.16827397      -2.97573141 </v>
   <v>      -8.69946070      -2.97573122     513.79840383 </v>
  </varray>
  <energy>
   <i name="e_fr_energy">   -139.38136304 </i>
   <i name="e_wo_entrp">   -139.32966598 </i>
   <i name="e_0_energy">     -0.10339412 </i>
  </energy>
  <time name="totalsc">   14.08   14.10</time>
 </calculation>
 <calculation>
  <scstep>
   <time name="dav">    0.28    0.28</time>
   <time name="total">    0.31    0.31</time>
   <energy>
    <i name="alphaZ">    371.30264762 </i>
    <i name="ewald">  -4219.08516738 </i>
    <i name="hartreedc">   -935.12783903 </i>
    <i name="XCdc">   -787.25548026 </i>
    <i name="pawpsdc">   9737.57276247 </i>
    <i name="pawaedc">  -8942.12565394 </i>
    <i name="eentropy">     -0.15753052 </i>
    <i name="bandstr">   -132.60749013 </i>
    <i name="atom">   4687.48422623 </i>
    <i name="e_fr_energy">   -219.99952493 </i>
    <i name="e_wo_entrp">   -219.84199441 </i>
    <i name="e_0_energy">   -219.92075967 </i>
   </energy>
  </scstep>
  <scstep>
   <time name="dav">    0.45    0.45</time>
   <time name="total">    0.48    0.48</time>
   <energy>
    <i name="e_fr_energy">   -479.70080821 </i>
    <i name="e_wo_entrp">   -479.60999654 </i>
    <i name="e_0_energy">   -479.65540238 </i>
   </energy>
  </scstep>
  <scstep>
   <time name="dav">    0.41    0.41</time>
   <time name="total">    0.44    0.44</time>
   <energy>
    <i name="e_fr_energy">   -136.50487188 </i>
    <i name="e_wo_entrp">   -136.40817714 </i>
    <i name="e_0_energy">   -136.45652451 </i>
   </energy>
  </scstep>
  <scstep>
   <time name="dav">    0.46    0.46</time>
   <time name="total">    0.49    0.49</time>
   <energy>
    <i name="e_fr_energy">   -190.61984651 </i>
    <i name="e_wo_entrp">   -190.51314184 </i>
    <i name="e_0_energy">   -190.56649417 </i>
   </energy>
  </scstep>
  <scstep>
   <time name="dav">    0.41    0.41</time>
   <time name="total">    0.44    0.44</time>
   <energy>
    <i name="e_fr_energy">   -157.90114048 </i>
    <i name="e_wo_entrp">   -157.76943169 </i>
    <i name="e_0_energy">   -157.83528609 </i>
   </energy>
  </scstep>
  <scstep>
   <time name="dav">    0.43    0.43</time>
   <time name="total">    0.46    0.46</time>
   <energy>
    <i name="e_fr_energy">   -150.83608148 </i>
    <i name="e_wo_entrp">   -150.68466635 </i>
    <i name="e_0_energy">   -150.76037392 </i>
   </energy>
  </scstep>
  <scstep>
   <time name="dav">    0.45    0.45</time>
   <time name="total">    0.48    0.48</time>
   <energy>
    <i name="e_fr_energy">   -146.24733536 </i>
    <i name="e_wo_entrp">   -146.07021583 </i>
    <i name="e_0_energy">   -146.15877560 </i>
   </energy>
  </scstep>
  <scstep>
   <time name="dav">    0.45    0.45</time>
   <time name="total">    0.48    0.48</time>
   <energy>
    <i name="e_fr_energy">   -145.81054478 </i>
    <i name="e_wo_entrp">   -145.65128537 </i>
    <i name="e_0_energy">   -145.73091507 </i>
   </energy>
  </scstep>
  <scstep>
   <time name="dav">    0.49    0.50</time>
   <time name="total">    0.53    0.53</time>
   <energy>
    <i name="e_fr_energy">   -145.90409822 </i>
    <i name="e_wo_entrp">   -145.74813258 </i>
    <i name="e_0_energy">   -145.82611540 </i>
   </energy>
  </scstep>
  <scstep>
   <time name="dav">    0.49    0.49</time>
   <time name="total">    0.52    0.52</time>
   <energy>
    <i name="e_fr_energy">   -144.93508313 </i>
    <i name="e_wo_entrp">   -144.73859556 </i>
    <i name="e_0_energy">   -144.83683934 </i>
   </energy>
  </scstep>
  <scstep>
   <time name="dav">    0.49    0.49</time>
   <time name="total">    0.52    0.52</time>
   <energy>
    <i name="e_fr_energy">   -145.70373238 </i>
    <i name="e_wo_entrp">   -145.49227241 </i>
    <i name="e_0_energy">   -145.59800239 </i>
   </energy>
  </scstep>
  <scstep>
   <time name="dav">    0.49    0.49</time>
   <time name="total">    0.52    0.52</time>
   <energy>
    <i name="e_fr_energy">   -150.28139278 </i>
    <i name="e_wo_entrp">   -150.05697346 </i>
    <i name="e_0_energy">   -150.16918312 </i>
   </energy>
  </scstep>
  <scstep>
   <time name="dav">    0.49    0.49</time>
   <time name="total">    0.52    0.52</time>
   <energy>
    <i name="e_fr_energy">   -147.47480501 </i>
    <i name="e_wo_entrp">   -147.22847727 </i>
    <i name="e_0_energy">   -147.35164114 </i>
   </energy>
  </scstep>
  <scstep>
   <time name="dav">    0.48    0.49</time>
   <time name="total">    0.51    0.52</time>
   <energy>
    <i name="e_fr_energy">   -144.53273180 </i>
    <i name="e_wo_entrp">   -144.30201263 </i>
    <i name="e_0_energy">   -144.41737221 </i>
   </energy>
  </scstep>
  <scstep>
   <time name="dav">    0.48    0.48</time>
   <time name="total">    0.51    0.51</time>
   <energy>
    <i name="e_fr_energy">   -143.34995380 </i>
    <i name="e_wo_entrp">   -143.15409569 </i>
    <i name="e_0_energy">   -143.25202475 </i>
   </energy>
  </scstep>
  <scstep>
   <time name="dav">    0.49    0.49</time>
   <time name="total">    0.52    0.52</time>
   <energy>
    <i name="e_fr_energy">   -144.50086339 </i>
    <i name="e_wo_entrp">   -144.27346233 </i>
    <i name="e_0_energy">   -144.38716286 </i>
   </energy>
  </scstep>
  <scstep>
   <time name="dav">    0.48    0.49</time>
   <time name="total">    0.51    0.52</time>
   <energy>
    <i name="e_fr_energy">   -143.34104132 </i>
    <i name="e_wo_entrp">   -143.11017695 </i>
    <i name="e_0_energy">   -143.22560914 </i>
   </energy>
  </scstep>
  <scstep>
   <time name="dav">    0.44    0.44</time>
   <time name="total">    0.47    0.47</time>
   <energy>
    <i name="e_fr_energy">   -143.16150038 </i>
    <i name="e_wo_entrp">   -142.93507184 </i>
    <i name="e_0_energy">   -143.04828611 </i>
   </energy>
  </scstep>
  <scstep>
   <time name="dav">    0.43    0.43</time>
   <time name="total">    0.46    0.46</time>
   <energy>
    <i name="e_fr_energy">   -142.94610514 </i>
    <i name="e_wo_entrp">   -142.72792627 </i>
    <i name="e_0_energy">   -142.83701570 </i>
   </energy>
  </scstep>
  <scstep>
   <time name="dav">    0.45    0.45</time>
   <time name="total">    0.48    0.48</time>
   <energy>
    <i name="e_fr_energy">   -142.83274853 </i>
    <i name="e_wo_entrp">   -142.61900280 </i>
    <i name="e_0_energy">   -142.72587567 </i>
   </energy>
  </scstep>
  <scstep>
   <time name="dav">    0.42    0.42</time>
   <time name="total">    0.45    0.45</time>
   <energy>
    <i name="e_fr_energy">   -142.80858991 </i>
    <i name="e_wo_entrp">   -142.59492750 </i>
    <i name="e_0_energy">   -142.70175870 </i>
   </energy>
  </scstep>
  <scstep>
   <time name="dav">    0.42    0.42</time>
   <time name="total">    0.45    0.45</time>
   <energy>
    <i name="e_fr_energy">   -142.80497341 </i>
    <i name="e_wo_entrp">   -142.59059722 </i>
    <i name="e_0_energy">   -142.69778532 </i>
   </energy>
  </scstep>
  <scstep>
   <time name="dav">    0.47    0.47</time>
   <time name="total">    0.50    0.51</time>
   <energy>
    <i name="e_fr_energy">   -142.76375274 </i>
    <i name="e_wo_entrp">   -142.55263806 </i>
    <i name="e_0_energy">   -142.65819540 </i>
   </energy>
  </scstep>
  <scstep>
   <time name="dav">    0.46    0.46</time>
   <time name="total">    0.49    0.49</time>
   <energy>
    <i name="e_fr_energy">   -142.71597022 </i>
    <i name="e_wo_entrp">   -142.50880865 </i>
    <i name="e_0_energy">   -142.61238944 </i>
   </energy>
  </scstep>
  <scstep>
   <time name="dav">    0.43    0.43</time>
   <time name="total">    0.46    0.46</time>
   <energy>
    <i name="e_fr_energy">   -142.71432196 </i>
    <i name="e_wo_entrp">   -142.50533868 </i>
    <i name="e_0_energy">   -142.60983032 </i>
   </energy>
  </scstep>
  <scstep>
   <time name="dav">    0.48    0.48</time>
   <time name="total">    0.51    0.51</time>
   <energy>
    <i name="e_fr_energy">   -142.70709876 </i>
    <i name="e_wo_entrp">   -142.49935274 </i>
    <i name="e_0_energy">   -142.60322575 </i>
   </energy>
  </scstep>
  <scstep>
   <time name="dav">    0.42    0.42</time>
   <time name="total">    0.45    0.45</time>
   <energy>
    <i name="e_fr_energy">   -142.70683548 </i>
    <i name="e_wo_entrp">   -142.49912321 </i>
    <i name="e_0_energy">   -142.60297935 </i>
   </energy>
  </scstep>
  <scstep>
   <time name="dav">    0.48    0.48</time>
   <time name="total">    0.51    0.52</time>
   <energy>
    <i name="e_fr_energy">   -142.70761165 </i>
    <i name="e_wo_entrp">   -142.50005762 </i>
    <i name="e_0_energy">   -142.60383463 </i>
   </energy>
  </scstep>
  <scstep>
   <time name="dav">    0.49    0.49</time>
   <time name="total">    0.52    0.52</time>
   <energy>
    <i name="e_fr_energy">   -142.70609419 </i>
    <i name="e_wo_entrp">   -142.49901254 </i>
    <i name="e_0_energy">   -142.60255337 </i>
   </energy>
  </scstep>
  <scstep>
   <time name="dav">    0.48    0.48</time>
   <time name="total">    0.51    0.51</time>
   <energy>
    <i name="e_fr_energy">   -142.70459148 </i>
    <i name="e_wo_entrp">   -142.49830700 </i>
    <i name="e_0_energy">   -142.60144924 </i>
   </energy>
  </scstep>
  <scstep>
   <time name="dav">    0.41    0.41</time>
   <time name="total">    0.44    0.44</time>
   <energy>
    <i name="e_fr_energy">   -142.70455119 </i>
    <i name="e_wo_entrp">   -142.49831010 </i>
    <i name="e_0_energy">   -142.60143064 </i>
   </energy>
  </scstep>
  <scstep>
   <time name="dav">    0.44    0.44</time>
   <time name="total">    0.48    0.48</time>
   <energy>
    <i name="e_fr_energy">   -142.70444466 </i>
    <i name="e_wo_entrp">   -142.49838841 </i>
    <i name="e_0_energy">   -142.60141654 </i>
   </energy>
  </scstep>
  <scstep>
   <time name="dav">    0.38    0.38</time>
   <time name="total">    0.41    0.41</time>
   <energy>
    <i name="e_fr_energy">   -142.70441407 </i>
    <i name="e_wo_entrp">   -142.49839803 </i>
    <i name="e_0_energy">   -142.60140605 </i>
   </energy>
  </scstep>
  <scstep>
   <time name="dav">    0.48    0.48</time>
   <time name="total">    0.52    0.52</time>
   <energy>
    <i name="e_fr_energy">   -142.70431492 </i>
    <i name="e_wo_entrp">   -142.49843254 </i>
    <i name="e_0_energy">   -142.60137373 </i>
   </energy>
  </scstep>
  <scstep>
   <time name="dav">    0.34    0.34</time>
   <time name="total">    0.35    0.36</time>
   <energy>
    <i name="alphaZ">    371.30264762 </i>
    <i name="ewald">  -4219.08516738 </i>
    <i name="hartreedc">  -1196.63945190 </i>
    <i name="XCdc">   -782.22728424 </i>
    <i name="pawpsdc">   6673.33705573 </i>
    <i name="pawaedc">  -5856.88413278 </i>
    <i name="eentropy">     -0.20585405 </i>
    <i name="bandstr">    180.21365071 </i>
    <i name="atom">   4687.48422623 </i>
    <i name="e_fr_energy">   -142.70431006 </i>
    <i name="e_wo_entrp">   -142.49845601 </i>
    <i name="e_0_energy">   -142.60138304 </i>
   </energy>
  </scstep>
  <structure>
   <crystal>
    <varray name="basis" >
     <v>       6.50574842       0.01541134      -0.02068661 </v>
     <v>       0.02658698      12.21658697      -0.01220730 </v>
     <v>      -0.01370956      -0.00468948       4.85005841 </v>
    </varray>
    <i name="volume">    385.46732375 </i>
    <varray name="rec_basis" >
     <v>       0.15371239      -0.00033409       0.00043417 </v>
     <v>      -0.00019366       0.08185642       0.00007860 </v>
     <v>       0.00065513       0.00020460       0.20618513 </v>
    </varray>
   </crystal>
   <varray name="positions" >
    <v>       0.24893818       0.24883994       0.46522229 </v>
    <v>       0.75128058       0.75137236       0.53498684 </v>
    <v>       0.75197322       0.25180553       0.47281707 </v>
    <v>       0.24825200       0.74841942       0.52741445 </v>
    <v>       0.75015262       0.75153405      -0.03356291 </v>
    <v>       0.25006861       0.24867425       0.03378830 </v>
    <v>       0.25083194       0.74939406      -0.02716175 </v>
    <v>       0.74938451       0.25083323       0.02737236 </v>
    <v>       0.25232883       0.57688708       0.25038170 </v>
    <v>       0.74789126       0.42332334       0.74983290 </v>
    <v>       0.74953805       0.57223769       0.25073236 </v>
    <v>       0.25068552       0.42798803       0.74949496 </v>
    <v>       0.24652369       0.92783381       0.25159410 </v>
    <v>       0.75369588       0.07239685       0.74861708 </v>
    <v>       0.00010531       0.50012169       0.50012616 </v>
    <v>       0.50012587       0.50012084       0.00011383 </v>
    <v>       0.50010735       0.00012097       0.00012597 </v>
    <v>       0.00011538       0.00011482       0.50010585 </v>
    <v>       0.74870147       0.92743708       0.25018875 </v>
    <v>       0.25153971       0.07278496       0.75004971 </v>
   </varray>
  </structure>
  <varray name="forces" >
   <v>      -0.00018998      -0.55597747       0.38293136 </v>
   <v>       0.00037185       0.55670583      -0.38378047 </v>
   <v>       0.07623342       0.08750330       0.42460023 </v>
   <v>      -0.07627913      -0.08878940      -0.42943333 </v>
   <v>       0.03768810       0.57002137       0.41780168 </v>
   <v>      -0.03744038      -0.57026539      -0.41646094 </v>
   <v>       0.07500669       0.04868110       0.43874958 </v>
   <v>      -0.07454610      -0.04962474      -0.43599120 </v>
   <v>       0.01915432       0.07966033       0.02636097 </v>
   <v>      -0.01922296      -0.08108111      -0.02449260 </v>
   <v>       0.04372749       0.03867401       0.07744346 </v>
   <v>      -0.04389703      -0.03858704      -0.07861982 </v>
   <v>      -0.38854892       0.37254204       0.27478547 </v>
   <v>       0.38826847      -0.37039842      -0.27327829 </v>
   <v>       0.00105620       0.00101555      -0.00065612 </v>
   <v>      -0.00086155       0.00087550       0.00058466 </v>
   <v>       0.00042914      -0.00032358       0.00130663 </v>
   <v>       0.00001227      -0.00029244      -0.00076330 </v>
   <v>       0.02547968      -0.63918542       0.19708432 </v>
   <v>      -0.02644159       0.63884599      -0.19817229 </v>
  </varray>
  <varray name="stress" >
   <v>    -186.64472563       0.92447038      -8.06819742 </v>
   <v>       0.92447047    -245.09812882      -2.67776974 </v>
   <v>      -8.06819748      -2.67776979    -222.90872635 </v>
  </varray>
  <energy>
   <i name="e_fr_energy">   -142.70431006 </i>
   <i name="e_wo_entrp">   -142.60138304 </i>
   <i name="e_0_energy">     -0.20585405 </i>
  </energy>
  <time name="totalsc">   17.42   17.43</time>
 </calculation>
 <calculation>
  <scstep>
   <time name="dav">    0.28    0.28</time>
   <time name="total">    0.31    0.31</time>
   <energy>
    <i name="alphaZ">    442.07947026 </i>
    <i name="ewald">  -4474.10716095 </i>
    <i name="hartreedc">  -1263.04653599 </i>
    <i name="XCdc">   -771.84337338 </i>
    <i name="pawpsdc">   6673.35329473 </i>
    <i name="pawaedc">  -5856.90290578 </i>
    <i name="eentropy">     -0.17300463 </i>
    <i name="bandstr">    391.37721106 </i>
    <i name="atom">   4687.48422623 </i>
    <i name="e_fr_energy">   -171.77877844 </i>
    <i name="e_wo_entrp">   -171.60577382 </i>
    <i name="e_0_energy">   -171.69227613 </i>
   </energy>
  </scstep>
  <scstep>
   <time name="dav">    0.46    0.46</time>
   <time name="total">    0.49    0.49</time>
   <energy>
    <i name="e_fr_energy">   -370.85082035 </i>
    <i name="e_wo_entrp">   -370.76598939 </i>
    <i name="e_0_energy">   -370.80840487 </i>
   </energy>
  </scstep>
  <scstep>
   <time name="dav">    0.42    0.43</time>
   <time name="total">    0.45    0.45</time>
   <energy>
    <i name="e_fr_energy">   -316.59928784 </i>
    <i name="e_wo_entrp">   -316.49322957 </i>
    <i name="e_0_energy">   -316.54625870 </i>
   </energy>
  </scstep>
  <scstep>
   <time name="dav">    0.43    0.43</time>
   <time name="total">    0.46    0.46</time>
   <energy>
    <i name="e_fr_energy">   -163.16290945 </i>
    <i name="e_wo_entrp">   -163.04082864 </i>
    <i name="e_0_energy">   -163.10186904 </i>
   </energy>
  </scstep>
  <scstep>
   <time name="dav">    0.44    0.44</time>
   <time name="total">    0.47    0.47</time>
   <energy>
    <i name="e_fr_energy">   -150.68112377 </i>
    <i name="e_wo_entrp">   -150.59343542 </i>
    <i name="e_0_energy">   -150.63727960 </i>
   </energy>
  </scstep>
  <scstep>
   <time name="dav">    0.49    0.49</time>
   <time name="total">    0.52    0.52</time>
   <energy>
    <i name="e_fr_energy">   -152.28207163 </i>
    <i name="e_wo_entrp">   -152.10856792 </i>
    <i name="e_0_energy">   -152.19531977 </i>
   </energy>
  </scstep>
  <scstep>
   <time name="dav">    0.48    0.48</time>
   <time name="total">    0.51    0.51</time>
   <energy>
    <i name="e_fr_energy">   -151.67089492 </i>
    <i name="e_wo_entrp">   -151.53594640 </i>
    <i name="e_0_energy">   -151.60342066 </i>
   </energy>
  </scstep>
  <scstep>
   <time name="dav">    0.46    0.46</time>
   <time name="total">    0.49    0.49</time>
   <energy>
    <i name="e_fr_energy">   -148.77457371 </i>
    <i name="e_wo_entrp">   -148.61426913 </i>
    <i name="e_0_energy">   -148.69442142 </i>
   </energy>
  </scstep>
  <scstep>
   <time name="dav">    0.49    0.49</time>
   <time name="total">    0.51    0.52</time>
   <energy>
    <i name="e_fr_energy">   -148.35132782 </i>
    <i name="e_wo_entrp">   -148.23945133 </i>
    <i name="e_0_energy">   -148.29538958 </i>
   </energy>
  </scstep>
  <scstep>
   <time name="dav">    0.44    0.44</time>
   <time name="total">    0.47    0.47</time>
   <energy>
    <i name="e_fr_energy">   -148.10852541 </i>
    <i name="e_wo_entrp">   -147.98257165 </i>
    <i name="e_0_energy">   -148.04554853 </i>
   </energy>
  </scstep>
  <scstep>
   <time name="dav">    0.48    0.48</time>
   <time name="total">    0.51    0.51</time>
   <energy>
    <i name="e_fr_energy">   -148.00098058 </i>
    <i name="e_wo_entrp">   -147.85995313 </i>
    <i name="e_0_energy">   -147.93046685 </i>
   </energy>
  </scstep>
  <scstep>
   <time name="dav">    0.48    0.48</time>
   <time name="total">    0.51    0.51</time>
   <energy>
    <i name="e_fr_energy">   -147.94246345 </i>
    <i name="e_wo_entrp">   -147.79913747 </i>
    <i name="e_0_energy">   -147.87080046 </i>
   </energy>
  </scstep>
  <scstep>
   <time name="dav">    0.49    0.49</time>
   <time name="total">    0.51    0.52</time>
   <energy>
    <i name="e_fr_energy">   -147.84622705 </i>
    <i name="e_wo_entrp">   -147.70580435 </i>
    <i name="e_0_energy">   -147.77601570 </i>
   </energy>
  </scstep>
  <scstep>
   <time name="dav">    0.45    0.45</time>
   <time name="total">    0.48    0.48</time>
   <energy>
    <i name="e_fr_energy">   -147.83846541 </i>
    <i name="e_wo_entrp">   -147.69293833 </i>
    <i name="e_0_energy">   -147.76570187 </i>
   </energy>
  </scstep>
  <scstep>
   <time name="dav">    0.45    0.45</time>
   <time name="total">    0.48    0.48</time>
   <energy>
    <i name="e_fr_energy">   -147.82480854 </i>
    <i name="e_wo_entrp">   -147.67922399 </i>
    <i name="e_0_energy">   -147.75201626 </i>
   </energy>
  </scstep>
  <scstep>
   <time name="dav">    0.46    0.46</time>
   <time name="total">    0.49    0.49</time>
   <energy>
    <i name="e_fr_energy">   -147.82550569 </i>
    <i name="e_wo_entrp">   -147.68017854 </i>
    <i name="e_0_energy">   -147.75284212 </i>
   </energy>
  </scstep>
  <scstep>
   <time name="dav">    0.49    0.49</time>
   <time name="total">    0.52    0.52</time>
   <energy>
    <i name="e_fr_energy">   -147.82490740 </i>
    <i name="e_wo_entrp">   -147.67970381 </i>
    <i name="e_0_energy">   -147.75230560 </i>
   </energy>
  </scstep>
  <scstep>
   <time name="dav">    0.43    0.43</time>
   <time name="total">    0.46    0.46</time>
   <energy>
    <i name="e_fr_energy">   -147.82242040 </i>
    <i name="e_wo_entrp">   -147.67758472 </i>
    <i name="e_0_energy">   -147.75000256 </i>
   </energy>
  </scstep>
  <scstep>
   <time name="dav">    0.42    0.42</time>
   <time name="total">    0.45    0.45</time>
   <energy>
    <i name="e_fr_energy">   -147.82181743 </i>
    <i name="e_wo_entrp">   -147.67660723 </i>
    <i name="e_0_energy">   -147.74921233 </i>
   </energy>
  </scstep>
  <scstep>
   <time name="dav">    0.41    0.41</time>
   <time name="total">    0.44    0.44</time>
   <energy>
    <i name="e_fr_energy">   -147.82135156 </i>
    <i name="e_wo_entrp">   -147.67608069 </i>
    <i name="e_0_energy">   -147.74871613 </i>
   </energy>
  </scstep>
  <scstep>
   <time name="dav">    0.47    0.47</time>
   <time name="total">    0.50    0.50</time>
   <energy>
    <i name="e_fr_energy">   -147.82057908 </i>
    <i name="e_wo_entrp">   -147.67513413 </i>
    <i name="e_0_energy">   -147.74785661 </i>
   </energy>
  </scstep>
  <scstep>
   <time name="dav">    0.41    0.41</time>
   <time name="total">    0.44    0.44</time>
   <energy>
    <i name="e_fr_energy">   -147.82035686 </i>
    <i name="e_wo_entrp">   -147.67476214 </i>
    <i name="e_0_energy">   -147.74755950 </i>
   </energy>
  </scstep>
  <scstep>
   <time name="dav">    0.45    0.45</time>
   <time name="total">    0.48    0.48</time>
   <energy>
    <i name="e_fr_energy">   -147.81973501 </i>
    <i name="e_wo_entrp">   -147.67401911 </i>
    <i name="e_0_energy">   -147.74687706 </i>
   </energy>
  </scstep>
  <scstep>
   <time name="dav">    0.41    0.41</time>
   <time name="total">    0.44    0.44</time>
   <energy>
    <i name="e_fr_energy">   -147.81953083 </i>
    <i name="e_wo_entrp">   -147.67363759 </i>
    <i name="e_0_energy">   -147.74658421 </i>
   </energy>
  </scstep>
  <scstep>
   <time name="dav">    0.46    0.46</time>
   <time name="total">    0.49    0.49</time>
   <energy>
    <i name="e_fr_energy">   -147.81930993 </i>
    <i name="e_wo_entrp">   -147.67312918 </i>
    <i name="e_0_energy">   -147.74621955 </i>
   </energy>
  </scstep>
  <scstep>
   <time name="dav">    0.40    0.41</time>
   <time name="total">    0.44    0.44</time>
   <energy>
    <i name="e_fr_energy">   -147.81923889 </i>
    <i name="e_wo_entrp">   -147.67309782 </i>
    <i name="e_0_energy">   -147.74616835 </i>
   </energy>
  </scstep>
  <scstep>
   <time name="dav">    0.43    0.43</time>
   <time name="total">    0.46    0.46</time>
   <energy>
    <i name="e_fr_energy">   -147.81916987 </i>
    <i name="e_wo_entrp">   -147.67291421 </i>
    <i name="e_0_energy">   -147.74604204 </i>
   </energy>
  </scstep>
  <scstep>
   <time name="dav">    0.43    0.43</time>
   <time name="total">    0.46    0.46</time>
   <energy>
    <i name="e_fr_energy">   -147.81915858 </i>
    <i name="e_wo_entrp">   -147.67287594 </i>
    <i name="e_0_energy">   -147.74601726 </i>
   </energy>
  </scstep>
  <scstep>
   <time name="dav">    0.34    0.34</time>
   <time name="total">    0.36    0.36</time>
   <energy>
    <i name="alphaZ">    442.07947026 </i>
    <i name="ewald">  -4474.10716095 </i>
    <i name="hartreedc">  -1123.23197730 </i>
    <i name="XCdc">   -776.11051948 </i>
    <i name="pawpsdc">   7637.79607061 </i>
    <i name="pawaedc">  -6830.40652517 </i>
    <i name="eentropy">     -0.14630326 </i>
    <i name="bandstr">    288.82356740 </i>
    <i name="atom">   4687.48422623 </i>
    <i name="e_fr_energy">   -147.81915167 </i>
    <i name="e_wo_entrp">   -147.67284841 </i>
    <i name="e_0_energy">   -147.74600004 </i>
   </energy>
  </scstep>
  <structure>
   <crystal>
    <varray name="basis" >
     <v>       6.31845593       0.00835705      -0.01121765 </v>
     <v>       0.01441722      11.43888085      -0.00661960 </v>
     <v>      -0.00743423      -0.00254295       4.47943166 </v>
    </varray>
    <i name="volume">    323.75409288 </i>
    <varray name="rec_basis" >
     <v>       0.15826724      -0.00019932       0.00026255 </v>
     <v>      -0.00011554       0.08742131       0.00004944 </v>
     <v>       0.00039617       0.00012869       0.22324334 </v>
    </varray>
   </crystal>
   <varray name="positions" >
    <v>       0.24880226       0.24934972       0.47869023 </v>
    <v>       0.75141703       0.75086562       0.52152306 </v>
    <v>       0.75187241       0.25114549       0.48338620 </v>
    <v>       0.24835057       0.74907751       0.51684091 </v>
    <v>       0.74949912       0.75098262      -0.02056307 </v>
    <v>       0.25072156       0.24923028       0.02078642 </v>
    <v>       0.25121679       0.74968370      -0.01659624 </v>
    <v>       0.74900120       0.25054071       0.01681043 </v>
    <v>       0.25137045       0.57950605       0.25028441 </v>
    <v>       0.74884959       0.42070814       0.74993226 </v>
    <v>       0.74976046       0.57667945       0.25050336 </v>
    <v>       0.25046158       0.42354402       0.74972116 </v>
    <v>       0.24807448       0.92344015       0.25101993 </v>
    <v>       0.75214531       0.07678631       0.74919460 </v>
    <v>       0.00011161       0.50012102       0.50012384 </v>
    <v>       0.50012336       0.50012051       0.00011617 </v>
    <v>       0.50011277       0.00012058       0.00012372 </v>
    <v>       0.00011737       0.00011686       0.50011126 </v>
    <v>       0.74932715       0.92320902       0.25015456 </v>
    <v>       0.25090493       0.07701223       0.75007682 </v>
   </varray>
  </structure>
  <varray name="forces" >
   <v>       0.04514039      -0.79744353       0.32334109 </v>
   <v>      -0.04542288       0.79793142      -0.32365276 </v>
   <v>       0.02221915       0.05689115       0.19491007 </v>
   <v>      -0.02235188      -0.05814129      -0.19922375 </v>
   <v>       0.15040080       0.71302413       0.36859344 </v>
   <v>      -0.15005843      -0.71181777      -0.36973797 </v>
   <v>      -0.02858149      -0.04228393       0.19844837 </v>
   <v>       0.02874954       0.04114877      -0.19444420 </v>
   <v>       0.09723105      -0.45550984      -0.00158408 </v>
   <v>      -0.09693817       0.45307758       0.00119915 </v>
   <v>       0.03392063      -0.62459806       0.07021493 </v>
   <v>      -0.03373646       0.62576119      -0.06863911 </v>
   <v>      -0.40525130       1.03522684       0.28747570 </v>
   <v>       0.40576644      -1.03321677      -0.28804965 </v>
   <v>       0.00254654       0.00186386      -0.00133524 </v>
   <v>      -0.00315777       0.00147090       0.00141407 </v>
   <v>      -0.00065714      -0.00151756       0.00287015 </v>
   <v>       0.00056360      -0.00154729      -0.00182183 </v>
   <v>      -0.10772359      -0.29439629       0.19686775 </v>
   <v>       0.10734096       0.29407648      -0.19684614 </v>
  </varray>
  <varray name="stress" >
   <v>     -72.11050140       1.47352158     -10.43901161 </v>
   <v>       1.47352146     -41.50267589      -2.78807540 </v>
   <v>     -10.43901145      -2.78807553      23.83576517 </v>
  </varray>
  <energy>
   <i name="e_fr_energy">   -147.81915167 </i>
   <i name="e_wo_entrp">   -147.74600004 </i>
   <i name="e_0_energy">     -0.14630326 </i>
  </energy>
  <time name="totalsc">   14.31   14.33</time>
 </calculation>
 <calculation>
  <scstep>
   <time name="dav">    0.28    0.28</time>
   <time name="total">    0.31    0.31</time>
   <energy>
    <i name="alphaZ">    445.24009571 </i>
    <i name="ewald">  -4484.46288457 </i>
    <i name="hartreedc">  -1125.96337214 </i>
    <i name="XCdc">   -775.71136144 </i>
    <i name="pawpsdc">   7639.37443117 </i>
    <i name="pawaedc">  -6831.99376840 </i>
    <i name="eentropy">     -0.14548702 </i>
    <i name="bandstr">    298.30513245 </i>
    <i name="atom">   4687.48422623 </i>
    <i name="e_fr_energy">   -147.87298800 </i>
    <i name="e_wo_entrp">   -147.72750099 </i>
    <i name="e_0_energy">   -147.80024450 </i>
   </energy>
  </scstep>
  <scstep>
   <time name="dav">    0.48    0.48</time>
   <time name="total">    0.51    0.51</time>
   <energy>
    <i name="e_fr_energy">   -149.86801706 </i>
    <i name="e_wo_entrp">   -149.75632024 </i>
    <i name="e_0_energy">   -149.81216865 </i>
   </energy>
  </scstep>
  <scstep>
   <time name="dav">    0.49    0.49</time>
   <time name="total">    0.52    0.52</time>
   <energy>
    <i name="e_fr_energy">   -147.78438074 </i>
    <i name="e_wo_entrp">   -147.64191709 </i>
    <i name="e_0_energy">   -147.71314891 </i>
   </energy>
  </scstep>
  <scstep>
   <time name="dav">    0.44    0.44</time>
   <time name="total">    0.47    0.47</time>
   <energy>
    <i name="e_fr_energy">   -147.85255365 </i>
    <i name="e_wo_entrp">   -147.70661801 </i>
    <i name="e_0_energy">   -147.77958583 </i>
   </energy>
  </scstep>
  <scstep>
   <time name="dav">    0.47    0.47</time>
   <time name="total">    0.50    0.50</time>
   <energy>
    <i name="e_fr_energy">   -147.84423745 </i>
    <i name="e_wo_entrp">   -147.70126669 </i>
    <i name="e_0_energy">   -147.77275207 </i>
   </energy>
  </scstep>
  <scstep>
   <time name="dav">    0.48    0.48</time>
   <time name="total">    0.51    0.51</time>
   <energy>
    <i name="e_fr_energy">   -147.83647503 </i>
    <i name="e_wo_entrp">   -147.69076844 </i>
    <i name="e_0_energy">   -147.76362173 </i>
   </energy>
  </scstep>
  <scstep>
   <time name="dav">    0.47    0.47</time>
   <time name="total">    0.50    0.50</time>
   <energy>
    <i name="e_fr_energy">   -147.83422232 </i>
    <i name="e_wo_entrp">   -147.69069469 </i>
    <i name="e_0_energy">   -147.76245851 </i>
   </energy>
  </scstep>
  <scstep>
   <time name="dav">    0.48    0.48</time>
   <time name="total">    0.51    0.51</time>
   <energy>
    <i name="e_fr_energy">   -147.83263845 </i>
    <i name="e_wo_entrp">   -147.68842942 </i>
    <i name="e_0_energy">   -147.76053394 </i>
   </energy>
  </scstep>
  <scstep>
   <time name="dav">    0.46    0.46</time>
   <time name="total">    0.50    0.50</time>
   <energy>
    <i name="e_fr_energy">   -147.83261041 </i>
    <i name="e_wo_entrp">   -147.68835430 </i>
    <i name="e_0_energy">   -147.76048236 </i>
   </energy>
  </scstep>
  <scstep>
   <time name="dav">    0.47    0.47</time>
   <time name="total">    0.50    0.50</time>
   <energy>
    <i name="e_fr_energy">   -147.83258417 </i>
    <i name="e_wo_entrp">   -147.68849599 </i>
    <i name="e_0_energy">   -147.76054008 </i>
   </energy>
  </scstep>
  <scstep>
   <time name="dav">    0.44    0.44</time>
   <time name="total">    0.47    0.47</time>
   <energy>
    <i name="e_fr_energy">   -147.83224856 </i>
    <i name="e_wo_entrp">   -147.68780044 </i>
    <i name="e_0_energy">   -147.76002450 </i>
   </energy>
  </scstep>
  <scstep>
   <time name="dav">    0.43    0.43</time>
   <time name="total">    0.46    0.46</time>
   <energy>
    <i name="e_fr_energy">   -147.83229233 </i>
    <i name="e_wo_entrp">   -147.68822984 </i>
    <i name="e_0_energy">   -147.76026109 </i>
   </energy>
  </scstep>
  <scstep>
   <time name="dav">    0.42    0.42</time>
   <time name="total">    0.45    0.45</time>
   <energy>
    <i name="e_fr_energy">   -147.83222560 </i>
    <i name="e_wo_entrp">   -147.68793328 </i>
    <i name="e_0_energy">   -147.76007944 </i>
   </energy>
  </scstep>
  <scstep>
   <time name="dav">    0.39    0.39</time>
   <time name="total">    0.42    0.42</time>
   <energy>
    <i name="e_fr_energy">   -147.83223429 </i>
    <i name="e_wo_entrp">   -147.68796743 </i>
    <i name="e_0_energy">   -147.76010086 </i>
   </energy>
  </scstep>
  <scstep>
   <time name="dav">    0.31    0.31</time>
   <time name="total">    0.34    0.34</time>
   <energy>
    <i name="e_fr_energy">   -147.83221723 </i>
    <i name="e_wo_entrp">   -147.68794915 </i>
    <i name="e_0_energy">   -147.76008319 </i>
   </energy>
  </scstep>
  <scstep>
   <time name="dav">    0.22    0.22</time>
   <time name="total">    0.24    0.24</time>
   <energy>
    <i name="alphaZ">    445.24009571 </i>
    <i name="ewald">  -4484.46288457 </i>
    <i name="hartreedc">  -1120.65514193 </i>
    <i name="XCdc">   -775.85948787 </i>
    <i name="pawpsdc">   7688.21102688 </i>
    <i name="pawaedc">  -6881.20755122 </i>
    <i name="eentropy">     -0.14429215 </i>
    <i name="bandstr">    293.56179598 </i>
    <i name="atom">   4687.48422623 </i>
    <i name="e_fr_energy">   -147.83221294 </i>
    <i name="e_wo_entrp">   -147.68792079 </i>
    <i name="e_0_energy">   -147.76006687 </i>
   </energy>
  </scstep>
  <structure>
   <crystal>
    <varray name="basis" >
     <v>       6.31106817       0.00807879      -0.01084415 </v>
     <v>       0.01393718      11.40820420      -0.00639920 </v>
     <v>      -0.00718670      -0.00245828       4.46481227 </v>
    </varray>
    <i name="volume">    321.45586001 </i>
    <varray name="rec_basis" >
     <v>       0.15845247      -0.00019344       0.00025494 </v>
     <v>      -0.00011213       0.08765638       0.00004808 </v>
     <v>       0.00038469       0.00012516       0.22397427 </v>
    </varray>
   </crystal>
   <varray name="positions" >
    <v>       0.24879630       0.24937110       0.47926541 </v>
    <v>       0.75142301       0.75084436       0.52094805 </v>
    <v>       0.75186790       0.25111761       0.48383763 </v>
    <v>       0.24835499       0.74910531       0.51638929 </v>
    <v>       0.74947208       0.75095929      -0.02000779 </v>
    <v>       0.25074857       0.24925381       0.02023105 </v>
    <v>       0.25123207       0.74969584      -0.01614505 </v>
    <v>       0.74898599       0.25052845       0.01635939 </v>
    <v>       0.25133172       0.57961636       0.25028022 </v>
    <v>       0.74888832       0.42059800       0.74993654 </v>
    <v>       0.74976981       0.57686657       0.25049336 </v>
    <v>       0.25045217       0.42335680       0.74973104 </v>
    <v>       0.24813717       0.92325510       0.25099548 </v>
    <v>       0.75208262       0.07697118       0.74921919 </v>
    <v>       0.00011186       0.50012099       0.50012374 </v>
    <v>       0.50012326       0.50012050       0.00011627 </v>
    <v>       0.50011299       0.00012056       0.00012362 </v>
    <v>       0.00011745       0.00011695       0.50011149 </v>
    <v>       0.74935227       0.92303092       0.25015324 </v>
    <v>       0.25087945       0.07719030       0.75007784 </v>
   </varray>
  </structure>
  <varray name="forces" >
   <v>       0.04777131      -0.80521020       0.28913510 </v>
   <v>      -0.04797857       0.80563284      -0.28920076 </v>
   <v>       0.01925295       0.05659427       0.15744176 </v>
   <v>      -0.01933738      -0.05680774      -0.15758954 </v>
   <v>       0.15649357       0.71431743       0.33715741 </v>
   <v>      -0.15621997      -0.71366086      -0.33756639 </v>
   <v>      -0.03463881      -0.04669071       0.15601425 </v>
   <v>       0.03468541       0.04681155      -0.15627807 </v>
   <v>       0.10360362      -0.48582989      -0.00257373 </v>
   <v>      -0.10335778       0.48683638       0.00265419 </v>
   <v>       0.03253964      -0.67010901       0.06860478 </v>
   <v>      -0.03238951       0.66928848      -0.06791384 </v>
   <v>      -0.40829704       1.07165679       0.28929798 </v>
   <v>       0.40839651      -1.07269439      -0.28937636 </v>
   <v>       0.00029009       0.00056868       0.00063082 </v>
   <v>      -0.00064510       0.00027140      -0.00045990 </v>
   <v>      -0.00026947      -0.00004649       0.00084179 </v>
   <v>       0.00037714      -0.00047342      -0.00029798 </v>
   <v>      -0.11330655      -0.25867497       0.19468601 </v>
   <v>       0.11302992       0.25821987      -0.19520753 </v>
  </varray>
  <varray name="stress" >
   <v>     -66.20209482       1.51147695     -10.58140916 </v>
   <v>       1.51147701     -30.60481483      -2.85370325 </v>
   <v>     -10.58140907      -2.85370316      36.24509473 </v>
  </varray>
  <energy>
   <i name="e_fr_energy">   -147.83221294 </i>
   <i name="e_wo_entrp">   -147.76006687 </i>
   <i name="e_0_energy">     -0.14429215 </i>
  </energy>
  <time name="totalsc">    7.87    7.88</time>
 </calculation>
 <calculation>
  <scstep>
   <time name="dav">    0.30    0.30</time>
   <time name="total">    0.33    0.33</time>
   <energy>
    <i name="alphaZ">    451.38451204 </i>
    <i name="ewald">  -4493.57970594 </i>
    <i name="hartreedc">  -1140.53546117 </i>
    <i name="XCdc">   -774.80499137 </i>
    <i name="pawpsdc">   7688.14335148 </i>
    <i name="pawaedc">  -6881.13647419 </i>
    <i name="eentropy">     -0.14249341 </i>
    <i name="bandstr">    313.52087467 </i>
    <i name="atom">   4687.48422623 </i>
    <i name="e_fr_energy">   -149.66616167 </i>
    <i name="e_wo_entrp">   -149.52366826 </i>
    <i name="e_0_energy">   -149.59491496 </i>
   </energy>
  </scstep>
  <scstep>
   <time name="dav">    0.48    0.48</time>
   <time name="total">    0.51    0.51</time>
   <energy>
    <i name="e_fr_energy">   -159.94333668 </i>
    <i name="e_wo_entrp">   -159.78278557 </i>
    <i name="e_0_energy">   -159.86306113 </i>
   </energy>
  </scstep>
  <scstep>
   <time name="dav">    0.48    0.48</time>
   <time name="total">    0.51    0.51</time>
   <energy>
    <i name="e_fr_energy">   -149.13094186 </i>
    <i name="e_wo_entrp">   -148.99811522 </i>
    <i name="e_0_energy">   -149.06452854 </i>
   </energy>
  </scstep>
  <scstep>
   <time name="dav">    0.50    0.50</time>
   <time name="total">    0.53    0.53</time>
   <energy>
    <i name="e_fr_energy">   -148.77499716 </i>
    <i name="e_wo_entrp">   -148.61909924 </i>
    <i name="e_0_energy">   -148.69704820 </i>
   </energy>
  </scstep>
  <scstep>
   <time name="dav">    0.44    0.44</time>
   <time name="total">    0.46    0.46</time>
   <energy>
    <i name="e_fr_energy">   -148.82496434 </i>
    <i name="e_wo_entrp">   -148.67931268 </i>
    <i name="e_0_energy">   -148.75213851 </i>
   </energy>
  </scstep>
  <scstep>
   <time name="dav">    0.49    0.49</time>
   <time name="total">    0.52    0.52</time>
   <energy>
    <i name="e_fr_energy">   -148.72076650 </i>
    <i name="e_wo_entrp">   -148.55783835 </i>
    <i name="e_0_energy">   -148.63930243 </i>
   </energy>
  </scstep>
  <scstep>
   <time name="dav">    0.49    0.49</time>
   <time name="total">    0.52    0.52</time>
   <energy>
    <i name="e_fr_energy">   -148.66734839 </i>
    <i name="e_wo_entrp">   -148.51065095 </i>
    <i name="e_0_energy">   -148.58899967 </i>
   </energy>
  </scstep>
  <scstep>
   <time name="dav">    0.50    0.50</time>
   <time name="total">    0.53    0.53</time>
   <energy>
    <i name="e_fr_energy">   -148.65514888 </i>
    <i name="e_wo_entrp">   -148.49553112 </i>
    <i name="e_0_energy">   -148.57534000 </i>
   </energy>
  </scstep>
  <scstep>
   <time name="dav">    0.47    0.47</time>
   <time name="total">    0.50    0.50</time>
   <energy>
    <i name="e_fr_energy">   -148.61843230 </i>
    <i name="e_wo_entrp">   -148.45827444 </i>
    <i name="e_0_energy">   -148.53835337 </i>
   </energy>
  </scstep>
  <scstep>
   <time name="dav">    0.44    0.44</time>
   <time name="total">    0.47    0.47</time>
   <energy>
    <i name="e_fr_energy">   -148.61895946 </i>
    <i name="e_wo_entrp">   -148.45767915 </i>
    <i name="e_0_energy">   -148.53831930 </i>
   </energy>
  </scstep>
  <scstep>
   <time name="dav">    0.48    0.48</time>
   <time name="total">    0.51    0.51</time>
   <energy>
    <i name="e_fr_energy">   -148.61764571 </i>
    <i name="e_wo_entrp">   -148.45672935 </i>
    <i name="e_0_energy">   -148.53718753 </i>
   </energy>
  </scstep>
  <scstep>
   <time name="dav">    0.49    0.49</time>
   <time name="total">    0.52    0.52</time>
   <energy>
    <i name="e_fr_energy">   -148.61758893 </i>
    <i name="e_wo_entrp">   -148.45678467 </i>
    <i name="e_0_energy">   -148.53718680 </i>
   </energy>
  </scstep>
  <scstep>
   <time name="dav">    0.48    0.48</time>
   <time name="total">    0.51    0.51</time>
   <energy>
    <i name="e_fr_energy">   -148.61743922 </i>
    <i name="e_wo_entrp">   -148.45641569 </i>
    <i name="e_0_energy">   -148.53692746 </i>
   </energy>
  </scstep>
  <scstep>
   <time name="dav">    0.45    0.45</time>
   <time name="total">    0.48    0.48</time>
   <energy>
    <i name="e_fr_energy">   -148.61705376 </i>
    <i name="e_wo_entrp">   -148.45626549 </i>
    <i name="e_0_energy">   -148.53665963 </i>
   </energy>
  </scstep>
  <scstep>
   <time name="dav">    0.49    0.49</time>
   <time name="total">    0.52    0.52</time>
   <energy>
    <i name="e_fr_energy">   -148.61710452 </i>
    <i name="e_wo_entrp">   -148.45629767 </i>
    <i name="e_0_energy">   -148.53670110 </i>
   </energy>
  </scstep>
  <scstep>
   <time name="dav">    0.49    0.49</time>
   <time name="total">    0.52    0.52</time>
   <energy>
    <i name="e_fr_energy">   -148.61703877 </i>
    <i name="e_wo_entrp">   -148.45618580 </i>
    <i name="e_0_energy">   -148.53661229 </i>
   </energy>
  </scstep>
  <scstep>
   <time name="dav">    0.39    0.39</time>
   <time name="total">    0.42    0.42</time>
   <energy>
    <i name="e_fr_energy">   -148.61704616 </i>
    <i name="e_wo_entrp">   -148.45622151 </i>
    <i name="e_0_energy">   -148.53663383 </i>
   </energy>
  </scstep>
  <scstep>
   <time name="dav">    0.29    0.29</time>
   <time name="total">    0.32    0.32</time>
   <energy>
    <i name="e_fr_energy">   -148.61703503 </i>
    <i name="e_wo_entrp">   -148.45619214 </i>
    <i name="e_0_energy">   -148.53661358 </i>
   </energy>
  </scstep>
  <scstep>
   <time name="dav">    0.21    0.21</time>
   <time name="total">    0.23    0.23</time>
   <energy>
    <i name="alphaZ">    451.38451204 </i>
    <i name="ewald">  -4493.57970594 </i>
    <i name="hartreedc">  -1127.23722588 </i>
    <i name="XCdc">   -775.33974785 </i>
    <i name="pawpsdc">   7745.37027505 </i>
    <i name="pawaedc">  -6939.00040421 </i>
    <i name="eentropy">     -0.16083346 </i>
    <i name="bandstr">    302.46187110 </i>
    <i name="atom">   4687.48422623 </i>
    <i name="e_fr_energy">   -148.61703293 </i>
    <i name="e_wo_entrp">   -148.45619947 </i>
    <i name="e_0_energy">   -148.53661620 </i>
   </energy>
  </scstep>
  <structure>
   <crystal>
    <varray name="basis" >
     <v>       6.14147607       0.01270410      -0.04101159 </v>
     <v>       0.02205019      11.31324715      -0.02127971 </v>
     <v>      -0.02816008      -0.00818552       4.56383582 </v>
    </varray>
    <i name="volume">    317.08008153 </i>
    <varray name="rec_basis" >
     <v>       0.16283466      -0.00031549       0.00100417 </v>
     <v>      -0.00018180       0.08839260       0.00015742 </v>
     <v>       0.00146242       0.00040931       0.21912369 </v>
    </varray>
   </crystal>
   <varray name="positions" >
    <v>       0.24914716       0.24625312       0.48108420 </v>
    <v>       0.75107068       0.75396373       0.51912831 </v>
    <v>       0.75201024       0.25138306       0.48458920 </v>
    <v>       0.24821223       0.74883918       0.51563660 </v>
    <v>       0.75059939       0.75373321      -0.01767461 </v>
    <v>       0.24962319       0.24648206       0.01789404 </v>
    <v>       0.25096802       0.74949650      -0.01540848 </v>
    <v>       0.74925025       0.25072847       0.01561997 </v>
    <v>       0.25211989       0.57756436       0.25026147 </v>
    <v>       0.74810185       0.42265357       0.74995593 </v>
    <v>       0.74998498       0.57397588       0.25117846 </v>
    <v>       0.25023816       0.42624452       0.74905290 </v>
    <v>       0.24519801       0.92768124       0.25386561 </v>
    <v>       0.75502246       0.07254138       0.74634804 </v>
    <v>       0.00011343       0.50012321       0.50013009 </v>
    <v>       0.50011897       0.50012157       0.00011159 </v>
    <v>       0.50011075       0.00012042       0.00013201 </v>
    <v>       0.00011992       0.00011498       0.50010818 </v>
    <v>       0.74852915       0.92235293       0.25205565 </v>
    <v>       0.25170129       0.07786660       0.74817085 </v>
   </varray>
  </structure>
  <varray name="forces" >
   <v>       0.01166236      -0.58077683       0.38640922 </v>
   <v>      -0.01185681       0.58165425      -0.38752792 </v>
   <v>      -0.02451791      -0.01912913       0.28301652 </v>
   <v>       0.02428355       0.01873568      -0.28297993 </v>
   <v>       0.15548476       0.50127629       0.46686777 </v>
   <v>      -0.15545409      -0.50034841      -0.46603490 </v>
   <v>      -0.06234410       0.07417321       0.31259468 </v>
   <v>       0.06232486      -0.07419610      -0.31278129 </v>
   <v>       0.04018647      -0.13524420       0.03102018 </v>
   <v>      -0.03993322       0.13599118      -0.03104515 </v>
   <v>       0.05661197      -0.16107710       0.07776339 </v>
   <v>      -0.05672435       0.15957721      -0.07762027 </v>
   <v>      -0.19186570       0.59837155       0.08102461 </v>
   <v>       0.19154274      -0.59959892      -0.08121852 </v>
   <v>       0.00076264       0.00050010       0.00084234 </v>
   <v>      -0.00088409       0.00025757      -0.00060687 </v>
   <v>       0.00009544       0.00006382       0.00121560 </v>
   <v>       0.00028808      -0.00050796      -0.00052743 </v>
   <v>      -0.26471385      -0.52504977       0.01960416 </v>
   <v>       0.26505125       0.52532756      -0.02001619 </v>
  </varray>
  <varray name="stress" >
   <v>     -39.61018425      -0.99592644     -11.62817757 </v>
   <v>      -0.99592643     -37.58896472      -1.27603967 </v>
   <v>     -11.62817773      -1.27603956      41.23054587 </v>
  </varray>
  <energy>
   <i name="e_fr_energy">   -148.61703293 </i>
   <i name="e_wo_entrp">   -148.53661620 </i>
   <i name="e_0_energy">     -0.16083346 </i>
  </energy>
  <time name="totalsc">    9.60    9.61</time>
 </calculation>
 <calculation>
  <scstep>
   <time name="dav">    0.29    0.29</time>
   <time name="total">    0.32    0.32</time>
   <energy>
    <i name="alphaZ">    471.51399247 </i>
    <i name="ewald">  -4507.77533701 </i>
    <i name="hartreedc">  -1192.41115347 </i>
    <i name="XCdc">   -772.01072621 </i>
    <i name="pawpsdc">   7745.42807970 </i>
    <i name="pawaedc">  -6939.05777386 </i>
    <i name="eentropy">     -0.11602699 </i>
    <i name="bandstr">    352.66625947 </i>
    <i name="atom">   4687.48422623 </i>
    <i name="e_fr_energy">   -154.27845967 </i>
    <i name="e_wo_entrp">   -154.16243268 </i>
    <i name="e_0_energy">   -154.22044617 </i>
   </energy>
  </scstep>
  <scstep>
   <time name="dav">    0.49    0.49</time>
   <time name="total">    0.52    0.52</time>
   <energy>
[...]
       <r>    7.3863    0.0000 </r>
       <r>    7.4533    0.0000 </r>
       <r>    7.4847    0.0000 </r>
       <r>    7.5716    0.0000 </r>
       <r>    7.6381    0.0000 </r>
       <r>    7.6583    0.0000 </r>
       <r>    7.7943    0.0000 </r>
       <r>    7.8779    0.0000 </r>
      </set>
      <set comment="kpoint 4">
       <r>    1.2030    1.0000 </r>
       <r>    2.0749    1.0000 </r>
       <r>    2.3167    1.0000 </r>
       <r>    2.7190    1.0000 </r>
       <r>    2.8625    1.0000 </r>
       <r>    3.0095    1.0000 </r>
       <r>    3.1261    1.0000 </r>
       <r>    3.2770    1.0000 </r>
       <r>    3.4799    1.0000 </r>
       <r>    3.6111    1.0000 </r>
       <r>    3.6293    1.0000 </r>
       <r>    3.6634    1.0000 </r>
       <r>    3.7192    1.0000 </r>
       <r>    3.8262    1.0000 </r>
       <r>    3.9682    1.0000 </r>
       <r>    4.0039    1.0000 </r>
       <r>    4.0475    1.0000 </r>
       <r>    4.0910    1.0000 </r>
       <r>    4.2780    1.0000 </r>
       <r>    4.3101    1.0000 </r>
       <r>    4.3343    1.0000 </r>
       <r>    4.5151    1.0000 </r>
       <r>    4.7279    1.0000 </r>
       <r>    4.8255    1.0000 </r>
       <r>    4.8969    1.0000 </r>
       <r>    4.9161    1.0000 </r>
       <r>    4.9718    1.0000 </r>
       <r>    5.0354    1.0000 </r>
       <r>    5.0615    1.0000 </r>
       <r>    5.0870    1.0000 </r>
       <r>    5.1372    1.0000 </r>
       <r>    5.1807    1.0000 </r>
       <r>    5.2114    1.0000 </r>
       <r>    5.2700    1.0000 </r>
       <r>    5.3495    1.0000 </r>
       <r>    5.4502    1.0000 </r>
       <r>    5.5099    1.0000 </r>
       <r>    5.5955    1.0000 </r>
       <r>    5.6388    1.0000 </r>
       <r>    5.6724    1.0000 </r>
       <r>    5.8374    1.0000 </r>
       <r>    5.9029    1.0000 </r>
       <r>    5.9553    1.0000 </r>
       <r>    6.0345    1.0000 </r>
       <r>    6.0475    1.0000 </r>
       <r>    6.1581    1.0000 </r>
       <r>    6.2618    1.0000 </r>
       <r>    6.3293    1.0000 </r>
       <r>    6.3486    1.0000 </r>
       <r>    6.4147    1.0000 </r>
       <r>    6.4768    1.0000 </r>
       <r>    6.5642    0.9989 </r>
       <r>    6.6394    0.9778 </r>
       <r>    6.6830    0.9183 </r>
       <r>    6.7750    0.5366 </r>
       <r>    6.8477    0.1747 </r>
       <r>    7.1007    0.0000 </r>
       <r>    7.1385    0.0000 </r>
       <r>    7.2067    0.0000 </r>
       <r>    7.2769    0.0000 </r>
       <r>    7.3863    0.0000 </r>
       <r>    7.3924    0.0000 </r>
       <r>    7.4751    0.0000 </r>
       <r>    7.5452    0.0000 </r>
       <r>    7.6001    0.0000 </r>
       <r>    7.6700    0.0000 </r>
       <r>    7.8365    0.0000 </r>
       <r>    7.8820    0.0000 </r>
      </set>
     </set>
    </set>
   </array>
  </eigenvalues>
  <separator name="orbital magnetization" >
   <v name="MAGDIPOLOUT">      0.00000000      0.00000000      0.00000000</v>
  </separator>
  <dos>
   <i name="efermi">      6.78153301 </i>
   <total>
    <array>
     <dimension dim="1">gridpoints</dimension>
     <dimension dim="2">spin</dimension>
     <field>energy</field>
     <field>total</field>
     <field>integrated</field>
     <set>
      <set comment="spin 1">
       <r>    -1.4194     0.0000     0.0000 </r>
       <r>    -1.3845     0.0000     0.0000 </r>
       <r>    -1.3495     0.0000     0.0000 </r>
       <r>    -1.3145     0.0000     0.0000 </r>
       <r>    -1.2795     0.0000     0.0000 </r>
       <r>    -1.2446     0.0000     0.0000 </r>
       <r>    -1.2096     0.0000     0.0000 </r>
       <r>    -1.1746     0.0000     0.0000 </r>
       <r>    -1.1397     0.0000     0.0000 </r>
       <r>    -1.1047     0.0000     0.0000 </r>
       <r>    -1.0697     0.0000     0.0000 </r>
       <r>    -1.0347     0.0000     0.0000 </r>
       <r>    -0.9998     0.0000     0.0000 </r>
       <r>    -0.9648     0.0000     0.0000 </r>
       <r>    -0.9298     0.0000     0.0000 </r>
       <r>    -0.8949     0.0000     0.0000 </r>
       <r>    -0.8599     0.0000     0.0000 </r>
       <r>    -0.8249     0.0000     0.0000 </r>
       <r>    -0.7900     0.0000     0.0000 </r>
       <r>    -0.7550     0.0000     0.0000 </r>
       <r>    -0.7200     0.0001     0.0000 </r>
       <r>    -0.6850     0.0007     0.0000 </r>
       <r>    -0.6501     0.0045     0.0002 </r>
       <r>    -0.6151     0.0217     0.0009 </r>
       <r>    -0.5801     0.0829     0.0038 </r>
       <r>    -0.5452     0.2495     0.0126 </r>
       <r>    -0.5102     0.5907     0.0332 </r>
       <r>    -0.4752     1.1002     0.0717 </r>
       <r>    -0.4402     1.6125     0.1281 </r>
       <r>    -0.4053     1.8596     0.1931 </r>
       <r>    -0.3703     1.6876     0.2521 </r>
       <r>    -0.3353     1.2051     0.2943 </r>
       <r>    -0.3004     0.6772     0.3180 </r>
       <r>    -0.2654     0.2994     0.3284 </r>
       <r>    -0.2304     0.1041     0.3321 </r>
       <r>    -0.1954     0.0285     0.3331 </r>
       <r>    -0.1605     0.0061     0.3333 </r>
       <r>    -0.1255     0.0010     0.3333 </r>
       <r>    -0.0905     0.0001     0.3333 </r>
       <r>    -0.0556     0.0000     0.3333 </r>
       <r>    -0.0206     0.0000     0.3333 </r>
       <r>     0.0144     0.0000     0.3333 </r>
       <r>     0.0494     0.0000     0.3333 </r>
       <r>     0.0843     0.0000     0.3333 </r>
       <r>     0.1193     0.0000     0.3333 </r>
       <r>     0.1543     0.0000     0.3333 </r>
       <r>     0.1892     0.0000     0.3333 </r>
       <r>     0.2242     0.0000     0.3333 </r>
       <r>     0.2592     0.0000     0.3333 </r>
       <r>     0.2942     0.0000     0.3333 </r>
       <r>     0.3291     0.0000     0.3333 </r>
       <r>     0.3641     0.0001     0.3333 </r>
       <r>     0.3991     0.0004     0.3334 </r>
       <r>     0.4340     0.0029     0.3335 </r>
       <r>     0.4690     0.0152     0.3340 </r>
       <r>     0.5040     0.0622     0.3362 </r>
       <r>     0.5390     0.2017     0.3432 </r>
       <r>     0.5739     0.5231     0.3615 </r>
       <r>     0.6089     1.1032     0.4001 </r>
       <r>     0.6439     1.9442     0.4681 </r>
       <r>     0.6788     2.9762     0.5722 </r>
       <r>     0.7138     4.1065     0.7158 </r>
       <r>     0.7488     5.1705     0.8966 </r>
       <r>     0.7838     5.8223     1.1002 </r>
       <r>     0.8187     5.6627     1.2982 </r>
       <r>     0.8537     4.6183     1.4597 </r>
       <r>     0.8887     3.1008     1.5682 </r>
       <r>     0.9236     1.6972     1.6275 </r>
       <r>     0.9586     0.7565     1.6540 </r>
       <r>     0.9936     0.2929     1.6642 </r>
       <r>     1.0285     0.1780     1.6704 </r>
       <r>     1.0635     0.3509     1.6827 </r>
       <r>     1.0985     0.8712     1.7132 </r>
       <r>     1.1335     1.7843     1.7756 </r>
       <r>     1.1684     2.9035     1.8771 </r>
       <r>     1.2034     3.7824     2.0094 </r>
       <r>     1.2384     4.0479     2.1510 </r>
       <r>     1.2733     3.7728     2.2829 </r>
       <r>     1.3083     3.3820     2.4012 </r>
       <r>     1.3433     3.1934     2.5128 </r>
       <r>     1.3783     3.1732     2.6238 </r>
       <r>     1.4132     3.0927     2.7320 </r>
       <r>     1.4482     2.7668     2.8287 </r>
       <r>     1.4832     2.1684     2.9046 </r>
       <r>     1.5181     1.4368     2.9548 </r>
       <r>     1.5531     0.7838     2.9822 </r>
       <r>     1.5881     0.3479     2.9944 </r>
       <r>     1.6231     0.1375     2.9992 </r>
       <r>     1.6580     0.1051     3.0029 </r>
       <r>     1.6930     0.2548     3.0118 </r>
       <r>     1.7280     0.6796     3.0355 </r>
       <r>     1.7629     1.4706     3.0870 </r>
       <r>     1.7979     2.5212     3.1751 </r>
       <r>     1.8329     3.4225     3.2948 </r>
       <r>     1.8679     3.6931     3.4240 </r>
       <r>     1.9028     3.2282     3.5369 </r>
       <r>     1.9378     2.4872     3.6239 </r>
       <r>     1.9728     2.1869     3.7003 </r>
       <r>     2.0077     2.8029     3.7984 </r>
       <r>     2.0427     4.2497     3.9470 </r>
       <r>     2.0777     5.8794     4.1526 </r>
       <r>     2.1127     6.8310     4.3915 </r>
       <r>     2.1476     6.6046     4.6224 </r>
       <r>     2.1826     5.4541     4.8132 </r>
       <r>     2.2176     4.2101     4.9604 </r>
       <r>     2.2525     3.6181     5.0869 </r>
       <r>     2.2875     3.7602     5.2184 </r>
       <r>     2.3225     4.1119     5.3622 </r>
       <r>     2.3575     4.1898     5.5088 </r>
       <r>     2.3924     4.0849     5.6516 </r>
       <r>     2.4274     4.2657     5.8008 </r>
       <r>     2.4624     4.9235     5.9730 </r>
       <r>     2.4973     5.6989     6.1723 </r>
       <r>     2.5323     6.1183     6.3862 </r>
       <r>     2.5673     6.1610     6.6017 </r>
       <r>     2.6022     6.2384     6.8199 </r>
       <r>     2.6372     6.6560     7.0526 </r>
       <r>     2.6722     7.2753     7.3070 </r>
       <r>     2.7072     7.7093     7.5767 </r>
       <r>     2.7421     7.7146     7.8464 </r>
       <r>     2.7771     7.4043     8.1054 </r>
       <r>     2.8121     7.1988     8.3571 </r>
       <r>     2.8470     7.5860     8.6224 </r>
       <r>     2.8820     8.8761     8.9328 </r>
       <r>     2.9170    11.0451     9.3191 </r>
       <r>     2.9520    13.6200     9.7954 </r>
       <r>     2.9869    15.8021    10.3480 </r>
       <r>     3.0219    17.0401    10.9439 </r>
       <r>     3.0569    17.4831    11.5553 </r>
       <r>     3.0918    17.5760    12.1700 </r>
       <r>     3.1268    17.2817    12.7743 </r>
       <r>     3.1618    16.0978    13.3373 </r>
       <r>     3.1968    13.8469    13.8215 </r>
       <r>     3.2317    11.0482    14.2079 </r>
       <r>     3.2667     8.3921    14.5014 </r>
       <r>     3.3017     6.1960    14.7181 </r>
       <r>     3.3366     4.5898    14.8786 </r>
       <r>     3.3716     3.9958    15.0183 </r>
       <r>     3.4066     5.1156    15.1972 </r>
       <r>     3.4416     8.3696    15.4899 </r>
       <r>     3.4765    13.4005    15.9585 </r>
       <r>     3.5115    19.2325    16.6311 </r>
       <r>     3.5465    24.9662    17.5042 </r>
       <r>     3.5814    30.0749    18.5560 </r>
       <r>     3.6164    33.8532    19.7399 </r>
       <r>     3.6514    35.1041    20.9675 </r>
       <r>     3.6864    33.0506    22.1233 </r>
       <r>     3.7213    28.4197    23.1172 </r>
       <r>     3.7563    23.0981    23.9249 </r>
       <r>     3.7913    18.7476    24.5806 </r>
       <r>     3.8262    16.0710    25.1426 </r>
       <r>     3.8612    15.2264    25.6751 </r>
       <r>     3.8962    16.3415    26.2466 </r>
       <r>     3.9312    19.3076    26.9218 </r>
       <r>     3.9661    23.3420    27.7381 </r>
       <r>     4.0011    27.1889    28.6889 </r>
       <r>     4.0361    29.8909    29.7342 </r>
       <r>     4.0710    31.3300    30.8298 </r>
       <r>     4.1060    32.1210    31.9531 </r>
       <r>     4.1410    33.0145    33.1077 </r>
       <r>     4.1760    34.1912    34.3034 </r>
       <r>     4.2109    35.1096    35.5312 </r>
       <r>     4.2459    35.1305    36.7598 </r>
       <r>     4.2809    33.9996    37.9488 </r>
       <r>     4.3158    31.6766    39.0566 </r>
       <r>     4.3508    28.3728    40.0488 </r>
       <r>     4.3858    24.9941    40.9229 </r>
       <r>     4.4207    22.8391    41.7216 </r>
       <r>     4.4557    22.4173    42.5055 </r>
       <r>     4.4907    22.8554    43.3048 </r>
       <r>     4.5257    22.6999    44.0986 </r>
       <r>     4.5606    21.2124    44.8405 </r>
       <r>     4.5956    18.8747    45.5005 </r>
       <r>     4.6306    16.8925    46.0913 </r>
       <r>     4.6655    16.3889    46.6644 </r>
       <r>     4.7005    17.7617    47.2856 </r>
       <r>     4.7355    20.3965    47.9989 </r>
       <r>     4.7705    23.1410    48.8081 </r>
       <r>     4.8054    25.3576    49.6949 </r>
       <r>     4.8404    27.3574    50.6516 </r>
       <r>     4.8754    29.6226    51.6876 </r>
       <r>     4.9103    31.8680    52.8020 </r>
       <r>     4.9453    33.2495    53.9648 </r>
       <r>     4.9803    33.5166    55.1369 </r>
       <r>     5.0153    33.4982    56.3084 </r>
       <r>     5.0502    34.0492    57.4991 </r>
       <r>     5.0852    34.8810    58.7189 </r>
       <r>     5.1202    35.0088    59.9432 </r>
       <r>     5.1551    34.1150    61.1363 </r>
       <r>     5.1901    32.9364    62.2881 </r>
       <r>     5.2251    32.4311    63.4223 </r>
       <r>     5.2601    32.8417    64.5708 </r>
       <r>     5.2950    33.4489    65.7405 </r>
       <r>     5.3300    33.1821    66.9009 </r>
       <r>     5.3650    31.6818    68.0089 </r>
       <r>     5.3999    29.7916    69.0507 </r>
       <r>     5.4349    28.8199    70.0586 </r>
       <r>     5.4699    29.3257    71.0841 </r>
       <r>     5.5049    30.8320    72.1624 </r>
       <r>     5.5398    32.6970    73.3058 </r>
       <r>     5.5748    34.7968    74.5227 </r>
       <r>     5.6098    36.9774    75.8158 </r>
       <r>     5.6447    38.2144    77.1522 </r>
       <r>     5.6797    37.1129    78.4501 </r>
       <r>     5.7147    33.4587    79.6202 </r>
       <r>     5.7497    28.8489    80.6291 </r>
       <r>     5.7846    25.5372    81.5222 </r>
       <r>     5.8196    24.7924    82.3892 </r>
       <r>     5.8546    26.3438    83.3104 </r>
       <r>     5.8895    29.0169    84.3252 </r>
       <r>     5.9245    31.6490    85.4320 </r>
       <r>     5.9595    33.5981    86.6070 </r>
       <r>     5.9944    34.6899    87.8201 </r>
       <r>     6.0294    34.8574    89.0391 </r>
       <r>     6.0644    34.0426    90.2296 </r>
       <r>     6.0994    32.5205    91.3669 </r>
       <r>     6.1343    31.0449    92.4526 </r>
       <r>     6.1693    30.5178    93.5198 </r>
       <r>     6.2043    31.5858    94.6244 </r>
       <r>     6.2392    34.3284    95.8249 </r>
       <r>     6.2742    38.0024    97.1539 </r>
       <r>     6.3092    41.1890    98.5943 </r>
       <r>     6.3442    42.4174   100.0777 </r>
       <r>     6.3791    40.7809   101.5039 </r>
       <r>     6.4141    36.2774   102.7725 </r>
       <r>     6.4491    29.9050   103.8183 </r>
       <r>     6.4840    23.3582   104.6352 </r>
       <r>     6.5190    18.2792   105.2744 </r>
       <r>     6.5540    15.4916   105.8162 </r>
       <r>     6.5890    14.7313   106.3314 </r>
       <r>     6.6239    14.9653   106.8547 </r>
       <r>     6.6589    15.0546   107.3812 </r>
       <r>     6.6939    14.4333   107.8859 </r>
       <r>     6.7288    13.3492   108.3528 </r>
       <r>     6.7638    12.4178   108.7870 </r>
       <r>     6.7988    11.9588   109.2053 </r>
       <r>     6.8338    11.8006   109.6179 </r>
       <r>     6.8687    11.6252   110.0245 </r>
       <r>     6.9037    11.4193   110.4238 </r>
       <r>     6.9387    11.5346   110.8272 </r>
       <r>     6.9736    12.2527   111.2557 </r>
       <r>     7.0086    13.4774   111.7270 </r>
       <r>     7.0436    15.0361   112.2529 </r>
       <r>     7.0786    16.9359   112.8451 </r>
       <r>     7.1135    19.0161   113.5101 </r>
       <r>     7.1485    20.8140   114.2380 </r>
       <r>     7.1835    22.2118   115.0148 </r>
       <r>     7.2184    23.8031   115.8472 </r>
       <r>     7.2534    26.2226   116.7643 </r>
       <r>     7.2884    29.4555   117.7943 </r>
       <r>     7.3234    33.0013   118.9484 </r>
       <r>     7.3583    36.2247   120.2153 </r>
       <r>     7.3933    38.3433   121.5562 </r>
       <r>     7.4283    38.6204   122.9068 </r>
       <r>     7.4632    36.9537   124.1991 </r>
       <r>     7.4982    34.0997   125.3916 </r>
       <r>     7.5332    31.1914   126.4824 </r>
       <r>     7.5682    29.0151   127.4971 </r>
       <r>     7.6031    27.5373   128.4601 </r>
       <r>     7.6381    25.9668   129.3682 </r>
       <r>     7.6731    23.4781   130.1892 </r>
       <r>     7.7080    20.1717   130.8946 </r>
       <r>     7.7430    17.2734   131.4987 </r>
       <r>     7.7780    16.1193   132.0624 </r>
       <r>     7.8129    16.8709   132.6524 </r>
       <r>     7.8479    18.2755   133.2915 </r>
       <r>     7.8829    18.6266   133.9429 </r>
       <r>     7.9179    16.9762   134.5366 </r>
       <r>     7.9528    13.6526   135.0141 </r>
       <r>     7.9878     9.8295   135.3578 </r>
       <r>     8.0228     6.6183   135.5893 </r>
       <r>     8.0577     4.4362   135.7444 </r>
       <r>     8.0927     3.0469   135.8509 </r>
       <r>     8.1277     2.0432   135.9224 </r>
       <r>     8.1627     1.2297   135.9654 </r>
       <r>     8.1976     0.6225   135.9872 </r>
       <r>     8.2326     0.2558   135.9961 </r>
       <r>     8.2676     0.0839   135.9991 </r>
       <r>     8.3025     0.0218   135.9998 </r>
       <r>     8.3375     0.0045   136.0000 </r>
       <r>     8.3725     0.0007   136.0000 </r>
       <r>     8.4075     0.0001   136.0000 </r>
       <r>     8.4424     0.0000   136.0000 </r>
       <r>     8.4774     0.0000   136.0000 </r>
       <r>     8.5124     0.0000   136.0000 </r>
       <r>     8.5473     0.0000   136.0000 </r>
       <r>     8.5823     0.0000   136.0000 </r>
       <r>     8.6173     0.0000   136.0000 </r>
       <r>     8.6523     0.0000   136.0000 </r>
       <r>     8.6872     0.0000   136.0000 </r>
       <r>     8.7222     0.0000   136.0000 </r>
       <r>     8.7572     0.0000   136.0000 </r>
       <r>     8.7921     0.0000   136.0000 </r>
       <r>     8.8271     0.0000   136.0000 </r>
       <r>     8.8621     0.0000   136.0000 </r>
       <r>     8.8971     0.0000   136.0000 </r>
       <r>     8.9320     0.0000   136.0000 </r>
       <r>     8.9670     0.0000   136.0000 </r>
       <r>     9.0020     0.0000   136.0000 </r>
       <r>     9.0369     0.0000   136.0000 </r>
       <r>     9.0719     0.0000   136.0000 </r>
      </set>
     </set>
    </array>
   </total>
  </dos>
 </calculation>
 <structure name="finalpos" >
  <crystal>
   <varray name="basis" >
    <v>       6.25123107       0.86997478      -0.76636411 </v>
    <v>       1.18244761      10.21331979       0.60905669 </v>
    <v>      -0.64368433      -0.08326549       4.04153559 </v>
   </varray>
   <i name="volume">    248.89085034 </i>
   <varray name="rec_basis" >
    <v>       0.16604953      -0.02077595       0.02601822 </v>
    <v>      -0.01387043       0.09952666      -0.00015861 </v>
    <v>       0.03357691      -0.01893818       0.25238823 </v>
   </varray>
  </crystal>
  <varray name="positions" >
   <v>       0.39947268       0.31645404       0.70338210 </v>
   <v>       0.60112015       0.63381672       0.29709944 </v>
   <v>       0.79853095       0.16925273       0.90010873 </v>
   <v>       0.20140691       0.78097334       0.10000780 </v>
   <v>      -0.00042412       0.73623589      -0.50291475 </v>
   <v>       0.00062459       0.21401400       0.50307195 </v>
   <v>       0.39900844       0.83263493      -0.30298277 </v>
   <v>       0.59631346       0.37254625       0.30184503 </v>
   <v>       0.19888407       0.52795038       0.09644542 </v>
   <v>       0.80201131       0.42231706       0.90422507 </v>
   <v>       0.79916877       0.68017989      -0.09944214 </v>
   <v>       0.20106013       0.27005240       0.09978587 </v>
   <v>       0.20148526       0.02227878       0.09997788 </v>
   <v>       0.79808874      -0.07210634      -0.10017132 </v>
   <v>       0.00057115       0.47513185       0.50031180 </v>
   <v>       0.40447584       0.57769234      -0.30119756 </v>
   <v>       0.60078920       0.11755171       0.30291646 </v>
   <v>      -0.00013784      -0.02491381       0.49992028 </v>
   <v>       0.60030856       0.88122362       0.30058207 </v>
   <v>       0.39948176       0.06895422       0.69926864 </v>
  </varray>
 </structure>
</modeling>
