unknown system                          
           1
     6.096575    0.000000    0.000000
     0.000000   10.517551    0.000000
     0.000000    0.000000    4.040359
   V    Fe
  17   3
Direct configuration=     1
   0.24856000  0.25012000  0.50054000
   0.75166000  0.75010000  0.49968000
   0.75168000  0.25012000  0.50054000
   0.24854000  0.75010000  0.49968000
   0.74856000  0.75012000  0.00054000
   0.25166000  0.25010000  0.99968000
   0.25168000  0.75012000  0.00054000
   0.74854000  0.25010000  0.99968000
   0.25012000  0.58353000  0.25012000
   0.75010000  0.41669000  0.75010000
   0.75010000  0.58351000  0.25010000
   0.25012000  0.41671000  0.75012000
   0.25010000  0.91669000  0.25010000
   0.75012000  0.08353000  0.75012000
   0.00012000  0.50012000  0.50012000
   0.50012000  0.50012000  0.00012000
   0.50012000  0.00012000  0.00012000
   0.00012000  0.00012000  0.50012000
   0.75012000  0.91671000  0.25012000
   0.25010000  0.08351000  0.75010000
unknown system                          
           1
     6.505748    0.015411   -0.020687
     0.026587   12.216587   -0.012207
    -0.013710   -0.004689    4.850058
   V    Fe
  17   3
Direct configuration=     2
   0.24893818  0.24883994  0.46522229
   0.75128058  0.75137236  0.53498684
   0.75197322  0.25180553  0.47281707
   0.24825200  0.74841942  0.52741445
   0.75015262  0.75153405 -0.03356291
   0.25006861  0.24867425  0.03378830
   0.25083194  0.74939406 -0.02716175
   0.74938451  0.25083323  0.02737236
   0.25232883  0.57688708  0.25038170
   0.74789126  0.42332334  0.74983290
   0.74953805  0.57223769  0.25073236
   0.25068552  0.42798803  0.74949496
   0.24652369  0.92783381  0.25159410
   0.75369588  0.07239685  0.74861708
   0.00010531  0.50012169  0.50012616
   0.50012587  0.50012084  0.00011383
   0.50010735  0.00012097  0.00012597
   0.00011538  0.00011482  0.50010585
   0.74870147  0.92743708  0.25018875
   0.25153971  0.07278496  0.75004971
unknown system                          
           1
     6.318456    0.008357   -0.011218
     0.014417   11.438881   -0.006620
    -0.007434   -0.002543    4.479432
   V    Fe
  17   3
Direct configuration=     3
   0.24880226  0.24934972  0.47869023
   0.75141703  0.75086562  0.52152306
   0.75187241  0.25114549  0.48338620
   0.24835057  0.74907751  0.51684091
   0.74949912  0.75098262 -0.02056307
   0.25072156  0.24923028  0.02078642
   0.25121679  0.74968370 -0.01659624
   0.74900120  0.25054071  0.01681043
   0.25137045  0.57950605  0.25028441
   0.74884959  0.42070814  0.74993226
   0.74976046  0.57667945  0.25050336
   0.25046158  0.42354402  0.74972116
   0.24807448  0.92344015  0.25101993
   0.75214531  0.07678631  0.74919460
   0.00011161  0.50012102  0.50012384
   0.50012336  0.50012051  0.00011617
   0.50011277  0.00012058  0.00012372
   0.00011737  0.00011686  0.50011126
   0.74932715  0.92320902  0.25015456
   0.25090493  0.07701223  0.75007682
unknown system                          
           1
     6.311068    0.008079   -0.010844
     0.013937   11.408204   -0.006399
    -0.007187   -0.002458    4.464812
   V    Fe
  17   3
Direct configuration=     4
   0.24879630  0.24937110  0.47926541
   0.75142301  0.75084436  0.52094805
   0.75186790  0.25111761  0.48383763
   0.24835499  0.74910531  0.51638929
   0.74947208  0.75095929 -0.02000779
   0.25074857  0.24925381  0.02023105
   0.25123207  0.74969584 -0.01614505
   0.74898599  0.25052845  0.01635939
   0.25133172  0.57961636  0.25028022
   0.74888832  0.42059800  0.74993654
   0.74976981  0.57686657  0.25049336
   0.25045217  0.42335680  0.74973104
   0.24813717  0.92325510  0.25099548
   0.75208262  0.07697118  0.74921919
   0.00011186  0.50012099  0.50012374
   0.50012326  0.50012050  0.00011627
   0.50011299  0.00012056  0.00012362
   0.00011745  0.00011695  0.50011149
   0.74935227  0.92303092  0.25015324
   0.25087945  0.07719030  0.75007784
unknown system                          
           1
     6.141476    0.012704   -0.041012
     0.022050   11.313247   -0.021280
    -0.028160   -0.008186    4.563836
   V    Fe
  17   3
Direct configuration=     5
   0.24914716  0.24625312  0.48108420
   0.75107068  0.75396373  0.51912831
   0.75201024  0.25138306  0.48458920
   0.24821223  0.74883918  0.51563660
   0.75059939  0.75373321 -0.01767461
   0.24962319  0.24648206  0.01789404
   0.25096802  0.74949650 -0.01540848
   0.74925025  0.25072847  0.01561997
   0.25211989  0.57756436  0.25026147
   0.74810185  0.42265357  0.74995593
   0.74998498  0.57397588  0.25117846
   0.25023816  0.42624452  0.74905290
   0.24519801  0.92768124  0.25386561
   0.75502246  0.07254138  0.74634804
   0.00011343  0.50012321  0.50013009
   0.50011897  0.50012157  0.00011159
   0.50011075  0.00012042  0.00013201
   0.00011992  0.00011498  0.50010818
   0.74852915  0.92235293  0.25205565
   0.25170129  0.07786660  0.74817085
unknown system                          
           1
     5.685639    0.025136   -0.122097
     0.043857   11.058017   -0.061276
    -0.084533   -0.023579    4.829996
   V    Fe
  17   3
Direct configuration=     6
   0.25014369  0.23780409  0.48584581
   0.75007006  0.76241655  0.51436418
   0.75240914  0.25210335  0.48657052
   0.24781214  0.74811707  0.51365233
   0.75372401  0.76125341 -0.01149399
   0.24650383  0.23896774  0.01170337
   0.25024593  0.74895747 -0.01347823
   0.74997289  0.25126932  0.01368225
   0.25430413  0.57200164  0.25020856
   0.74592228  0.42822597  0.75001059
   0.75059580  0.56614154  0.25295844
   0.24963062  0.43407081  0.74729122
   0.23708925  0.93968510  0.26139789
   0.76313311  0.06052760  0.73881306
   0.00011779  0.50012925  0.50014683
   0.50010707  0.50012445  0.00009921
   0.50010465  0.00012003  0.00015404
   0.00012671  0.00010965  0.50009949
   0.74627497  0.92051877  0.25703708
   0.25395193  0.07969620  0.74317733
unknown system                          
           1
     5.639109    0.023780   -0.155025
     0.041834   10.910570   -0.062757
    -0.108760   -0.023013    4.972046
   V    Fe
  17   3
Direct configuration=     7
   0.25069230  0.23602065  0.48589758
   0.74952068  0.76419502  0.51431801
   0.75249955  0.25153251  0.48766342
   0.24772302  0.74868714  0.51256350
   0.75499352  0.76276144 -0.01005024
   0.24523763  0.23745610  0.01025646
   0.25022203  0.74957173 -0.01152047
   0.74999591  0.25065604  0.01172031
   0.25423608  0.57114207  0.25007123
   0.74599044  0.42908844  0.75014787
   0.75111655  0.56568252  0.25316679
   0.24910955  0.43452579  0.74707989
   0.23782261  0.94215984  0.25982735
   0.76240110  0.05804862  0.74038345
   0.00011683  0.50013487  0.50015033
   0.50010745  0.50012874  0.00009883
   0.50008741  0.00012691  0.00014501
   0.00013337  0.00011008  0.50010043
   0.74293281  0.91810119  0.25568490
   0.25730116  0.08211027  0.74453536
unknown system                          
           1
     5.562364    0.021542   -0.209333
     0.038499   10.667379   -0.065200
    -0.148718   -0.022079    5.206336
   V    Fe
  17   3
Direct configuration=     8
   0.25160425  0.23303951  0.48598535
   0.74860746  0.76716787  0.51423918
   0.75265642  0.25057808  0.48941527
   0.24756832  0.74964030  0.51081818
   0.75711453  0.76528227 -0.00772116
   0.24312211  0.23492923  0.00792234
   0.25019465  0.75059814 -0.00838313
   0.75002181  0.24963126  0.00857626
   0.25412166  0.56970521  0.24984971
   0.74610503  0.43053017  0.75036931
   0.75198372  0.56491527  0.25350620
   0.24824183  0.43528629  0.74673571
   0.23903368  0.94629716  0.25732097
   0.76119227  0.05390424  0.74288960
   0.00011527  0.50014426  0.50015592
   0.50010808  0.50013592  0.00009823
   0.50005870  0.00013841  0.00013033
   0.00014445  0.00011080  0.50010202
   0.73736482  0.91405951  0.25347831
   0.26288095  0.08614610  0.74675140
unknown system                          
           1
     5.563395    0.007762   -0.238021
     0.013059   10.351042   -0.080630
    -0.173289   -0.028150    5.265598
   V    Fe
  17   3
Direct configuration=     9
   0.25301993  0.23321026  0.48207304
   0.74719098  0.76699648  0.51815721
   0.75376719  0.24899373  0.48986596
   0.24645833  0.75122357  0.51037649
   0.75910760  0.76463568 -0.00987125
   0.24112997  0.23557879  0.01007373
   0.25237763  0.75156633 -0.00604852
   0.74783574  0.24866578  0.00623579
   0.25374187  0.56897542  0.24921069
   0.74648345  0.43126056  0.75100685
   0.75283651  0.56570004  0.25367614
   0.24738497  0.43449848  0.74655302
   0.24001361  0.94852985  0.25427971
   0.76021351  0.05166243  0.74593670
   0.00011765  0.50015610  0.50016942
   0.50010952  0.50014448  0.00009556
   0.50007477  0.00013582  0.00014145
   0.00013633  0.00010612  0.50009640
   0.73478090  0.91171675  0.25356190
   0.26545954  0.08848333  0.74664971
unknown system                          
           1
     5.564839   -0.011540   -0.278203
    -0.022573    9.907960   -0.102241
    -0.207704   -0.036652    5.348603
   V    Fe
  17   3
Direct configuration=    10
   0.25498157  0.23345637  0.47666556
   0.74522823  0.76674945  0.52357262
   0.75531529  0.24670921  0.49049074
   0.24491137  0.75350653  0.50976417
   0.76188273  0.76370445 -0.01283747
   0.23835618  0.23651433  0.01304179
   0.25545476  0.75296982 -0.00279309
   0.74475428  0.24726621  0.00297222
   0.25320156  0.56792079  0.24831896
   0.74702184  0.43231605  0.75189655
   0.75403699  0.56683456  0.25392202
   0.24617869  0.43335955  0.74628941
   0.24138324  0.95175217  0.25008585
   0.75884551  0.04842695  0.75013861
   0.00012115  0.50017321  0.50018818
   0.50011157  0.50015683  0.00009191
   0.50009731  0.00013213  0.00015695
   0.00012491  0.00009934  0.50008853
   0.73114710  0.90833024  0.25364606
   0.26908571  0.09186183  0.74654042
unknown system                          
           1
     5.567727   -0.050143   -0.358567
    -0.093839    9.021797   -0.145464
    -0.276535   -0.053656    5.514614
   V    Fe
  17   3
Direct configuration=    11
   0.25884753  0.23396962  0.46604731
   0.74136015  0.76623428  0.53420644
   0.75838763  0.24194285  0.49172070
   0.24184142  0.75826967  0.50855877
   0.76738720  0.76176481 -0.01864753
   0.23285447  0.23846297  0.01885554
   0.26166482  0.75591981  0.00367994
   0.73853551  0.24432435 -0.00351685
   0.25209659  0.56571357  0.24654339
   0.74812297  0.43452507  0.75366807
   0.75645618  0.56921028  0.25443636
   0.24374766  0.43097457  0.74574004
   0.24411912  0.95848382  0.24188023
   0.75611278  0.04166781  0.75835998
   0.00012860  0.50020901  0.50022538
   0.50011580  0.50018264  0.00008488
   0.50014252  0.00012452  0.00018779
   0.00010187  0.00008513  0.50007280
   0.72383432  0.90123991  0.25372139
   0.27638286  0.09893534  0.74641538
unknown system                          
           1
     5.565819   -0.024647   -0.305490
    -0.046771    9.607075   -0.116917
    -0.231075   -0.042426    5.404970
   V    Fe
  17   3
Direct configuration=    12
   0.25636507  0.23359856  0.47281304
   0.74384392  0.76660672  0.52743076
   0.75639630  0.24539024  0.49093827
   0.24383102  0.75482458  0.50932546
   0.76381187  0.76316281 -0.01496166
   0.23642785  0.23705843  0.01516721
   0.25748612  0.75375429 -0.00055234
   0.74272000  0.24648401  0.00072574
   0.25286131  0.56732003  0.24770904
   0.74736080  0.43291732  0.75250504
   0.75483065  0.56747926  0.25406523
   0.24538136  0.43271238  0.74613382
   0.24230412  0.95360214  0.24706339
   0.75792586  0.04656940  0.75316690
   0.00012306  0.50018297  0.50020119
   0.50011280  0.50016391  0.00008915
   0.50011251  0.00012987  0.00016764
   0.00011735  0.00009552  0.50008322
   0.72873533  0.90640450  0.25379756
   0.27149270  0.09378305  0.74637136
unknown system                          
           1
     5.598468   -0.041361   -0.327972
    -0.077399    9.452851   -0.140494
    -0.252102   -0.053913    5.442941
   V    Fe
  17   3
Direct configuration=    13
   0.25841861  0.23502261  0.46588759
   0.74178812  0.76518175  0.53436169
   0.75803535  0.24343361  0.49040693
   0.24219268  0.75678041  0.50986090
   0.76698389  0.76131932 -0.02033109
   0.23325721  0.23890338  0.02052933
   0.26047766  0.75410538  0.00039179
   0.73972862  0.24613572 -0.00022004
   0.25249316  0.56544450  0.24715395
   0.74772625  0.43478520  0.75305906
   0.75554628  0.56736798  0.25428819
   0.24466235  0.43281786  0.74590094
   0.24143891  0.95676116  0.24548100
   0.75879038  0.04340445  0.75475302
   0.00012829  0.50019602  0.50021509
   0.50011092  0.50017184  0.00008506
   0.50012242  0.00013270  0.00017192
   0.00010863  0.00009218  0.50007993
   0.72709227  0.90570448  0.25566617
   0.27313803  0.09447946  0.74449857
unknown system                          
           1
     5.696416   -0.091502   -0.395418
    -0.169285    8.990181   -0.211227
    -0.315184   -0.088375    5.556852
   V    Fe
  17   3
Direct configuration=    14
   0.26449775  0.23935079  0.44529667
   0.73570227  0.76085075  0.55496891
   0.76288447  0.23747439  0.48881252
   0.23734569  0.76273717  0.51146753
   0.77635766  0.75569591 -0.03632261
   0.22388750  0.24453123  0.03649911
   0.26941778  0.75519509  0.00324490
   0.73078901  0.24505454 -0.00307806
   0.25135577  0.55972185  0.24546691
   0.74885540  0.44048449  0.75474278
   0.75768138  0.56703325  0.25495910
   0.24251695  0.43313483  0.74520037
   0.23889760  0.96638311  0.24080428
   0.76132955  0.03376443  0.75944077
   0.00014427  0.50023588  0.50025677
   0.50010540  0.50019600  0.00007296
   0.50015210  0.00014141  0.00018485
   0.00008253  0.00008193  0.50007000
   0.72219784  0.90356801  0.26120459
   0.27803908  0.09660491  0.73894766
unknown system                          
           1
     5.892310   -0.191785   -0.530311
    -0.353057    8.064841   -0.352693
    -0.441348   -0.157299    5.784675
   V    Fe
  17   3
Direct configuration=    15
   0.27620124  0.24836863  0.40519815
   0.72398580  0.75182704  0.59509914
   0.77217017  0.22498007  0.48560383
   0.22806434  0.77522645  0.51470015
   0.79426583  0.74385017 -0.06764813
   0.20598704  0.25638621  0.06778224
   0.28710263  0.75760751  0.00907386
   0.71310537  0.24266004 -0.00891636
   0.24887188  0.54765838  0.24195032
   0.75132216  0.45249871  0.75825193
   0.76188264  0.56635771  0.25631157
   0.23829417  0.43377269  0.74378891
   0.23416106  0.98656099  0.23188596
   0.76606145  0.01354860  0.76838007
   0.00017804  0.50032022  0.50034014
   0.50009520  0.50024668  0.00004989
   0.50021107  0.00016015  0.00021114
   0.00003060  0.00006000  0.50004962
   0.71260222  0.89906113  0.27188602
   0.28764709  0.10108861  0.72824153
unknown system                          
           1
     5.731704   -0.109567   -0.419718
    -0.202390    8.823489   -0.236711
    -0.337911   -0.100791    5.597892
   V    Fe
  17   3
Direct configuration=    16
   0.26722992  0.24027060  0.43638818
   0.73296713  0.75993035  0.56388447
   0.76526100  0.23634552  0.48833680
   0.23496985  0.76386541  0.51194836
   0.78092532  0.75472715 -0.04288795
   0.21932179  0.24550099  0.04305512
   0.27287990  0.75518428  0.00409486
   0.72732668  0.24506692 -0.00393052
   0.25130406  0.55874844  0.24511867
   0.74890535  0.44145394  0.75509118
   0.75854613  0.56692513  0.25519035
   0.24164996  0.43324038  0.74495816
   0.23738904  0.96820000  0.23842482
   0.76283810  0.03194423  0.76182582
   0.00014708  0.50024213  0.50027130
   0.50010197  0.50020055  0.00006681
   0.50016318  0.00014223  0.00018882
   0.00007291  0.00008073  0.50006725
   0.72020922  0.90320903  0.26375124
   0.28003141  0.09696198  0.73639626
unknown system                          
           1
     5.768235   -0.118582   -0.407869
    -0.220826    8.790850   -0.266150
    -0.334332   -0.120367    5.521100
   V    Fe
  17   3
Direct configuration=    17
   0.26993837  0.24324513  0.42869618
   0.73024866  0.75694870  0.57155862
   0.76681606  0.23326476  0.48587970
   0.23342734  0.76695152  0.51439391
   0.78688265  0.75239679 -0.04605756
   0.21337248  0.24782888  0.04622961
   0.27595993  0.75333740  0.00190205
   0.72424357  0.24691502 -0.00173138
   0.24990249  0.55527446  0.24577860
   0.75030009  0.44490534  0.75443241
   0.75932035  0.56825000  0.25515457
   0.24089166  0.43189562  0.74500513
   0.23387714  0.97219180  0.23796027
   0.76635198  0.02795625  0.76228873
   0.00013311  0.50026349  0.50027788
   0.50009933  0.50021675  0.00005586
   0.50015634  0.00015438  0.00018940
   0.00007393  0.00008530  0.50007744
   0.71717037  0.90036298  0.26590635
   0.28307415  0.09979542  0.73424226
unknown system                          
           1
     5.863967   -0.142205   -0.376817
    -0.269139    8.705314   -0.343298
    -0.324951   -0.171669    5.319855
   V    Fe
  17   3
Direct configuration=    18
   0.27701338  0.25102781  0.40828186
   0.72314745  0.74914713  0.59192545
   0.77083349  0.22514824  0.47929282
   0.22944263  0.77508206  0.52095009
   0.80236919  0.74626026 -0.05455629
   0.19790685  0.25395898  0.05474119
   0.28396009  0.74847218 -0.00397407
   0.71623539  0.25178349  0.00416160
   0.24622017  0.54613629  0.24748909
   0.75396443  0.45398410  0.75272468
   0.76134895  0.57173696  0.25507434
   0.23890430  0.42835644  0.74511467
   0.22477121  0.98268181  0.23681004
   0.77546313  0.01747630  0.76343463
   0.00009694  0.50031969  0.50029577
   0.50009261  0.50025928  0.00002703
   0.50013864  0.00018631  0.00019120
   0.00007665  0.00009740  0.50010458
   0.70923215  0.89288235  0.27161079
   0.29102236  0.10724292  0.72854052
unknown system                          
           1
     5.925854   -0.159452   -0.363502
    -0.298417    8.783050   -0.373483
    -0.317008   -0.190769    5.308194
   V    Fe
  17   3
Direct configuration=    19
   0.28029815  0.25359896  0.40228170
   0.71984361  0.74656969  0.59791219
   0.77213918  0.22186157  0.47664484
   0.22815945  0.77837506  0.52358450
   0.80848713  0.74430585 -0.05514437
   0.19180842  0.25591064  0.05533478
   0.28667808  0.74601821 -0.00650767
   0.71350624  0.25424165  0.00669903
   0.24532593  0.54430928  0.24864576
   0.75484864  0.45579009  0.75156796
   0.76173225  0.57332729  0.25475155
   0.23853361  0.42673493  0.74544221
   0.22186760  0.98422691  0.23432483
   0.77836610  0.01593182  0.76591961
   0.00008931  0.50034352  0.50030962
   0.50009240  0.50027924  0.00001631
   0.50013992  0.00019511  0.00019538
   0.00007287  0.00010076  0.50010959
   0.70511317  0.89012676  0.27374938
   0.29513795  0.10999267  0.72640280
unknown system                          
           1
     6.111514   -0.211192   -0.323558
    -0.386251    9.016257   -0.464037
    -0.293182   -0.248070    5.273210
   V    Fe
  17   3
Direct configuration=    20
   0.29010566  0.26122284  0.38425131
   0.70997941  0.73892693  0.61590232
   0.77597654  0.21207598  0.46861734
   0.22438905  0.78817950  0.53157111
   0.82662166  0.73852071 -0.05700138
   0.17373178  0.26168773  0.05720814
   0.29471936  0.73871711 -0.01419092
   0.70543188  0.26155517  0.01439395
   0.24264132  0.53887869  0.25210239
   0.75750317  0.46115811  0.74811093
   0.76289400  0.57805687  0.25380319
   0.23740883  0.42191275  0.74640425
   0.21327891  0.98879083  0.22690436
   0.78695289  0.01136972  0.77333938
   0.00006696  0.50041446  0.50035172
   0.50009211  0.50033851 -0.00001562
   0.50014382  0.00022130  0.00020807
   0.00006169  0.00011075  0.50012473
   0.69283955  0.88192455  0.28017345
   0.30740142  0.11817753  0.71998128
unknown system                          
           1
     6.173859   -0.228566   -0.310145
    -0.415746    9.094568   -0.494445
    -0.285180   -0.267312    5.261463
   V    Fe
  17   3
Direct configuration=    21
   0.29335232  0.26369518  0.37816493
   0.70671425  0.73644822  0.62197516
   0.77718982  0.20886118  0.46583926
   0.22319770  0.79140048  0.53433526
   0.83250113  0.73665188 -0.05771499
   0.16787110  0.26355405  0.05792706
   0.29731218  0.73632314 -0.01685215
   0.70282833  0.26395317  0.01705929
   0.24173897  0.53710410  0.25325060
   0.75839544  0.46291217  0.74696234
   0.76329473  0.57960498  0.25350406
   0.23701970  0.42033440  0.74670740
   0.21051141  0.99025501  0.22444532
   0.78971978  0.00990614  0.77579820
   0.00005996  0.50043774  0.50036640
   0.50009232  0.50035784 -0.00002610
   0.50014520  0.00022991  0.00021249
   0.00005808  0.00011403  0.50012994
   0.68879969  0.87923368  0.28233949
   0.31143789  0.12086270  0.71781604
unknown system                          
           1
     6.207678   -0.269865   -0.270954
    -0.481947    9.163268   -0.544051
    -0.256095   -0.298296    5.193930
   V    Fe
  17   3
Direct configuration=    22
   0.30072046  0.26622357  0.37318889
   0.69932809  0.73391336  0.62695061
   0.77940911  0.20377157  0.46134945
   0.22101147  0.79649993  0.53879815
   0.84302911  0.73516050 -0.05463640
   0.15737902  0.26503099  0.05483184
   0.30160112  0.73264658 -0.02053198
   0.69851625  0.26764296  0.02075954
   0.24093273  0.53709898  0.25582832
   0.75918279  0.46287813  0.74436842
   0.76440369  0.58145532  0.25335727
   0.23591669  0.41843165  0.74684173
   0.20649119  0.99038027  0.21722614
   0.79372198  0.00978169  0.78299888
   0.00007011  0.50047967  0.50042191
   0.50008856  0.50039968 -0.00003068
   0.50015670  0.00023575  0.00021966
   0.00005704  0.00011729  0.50013823
   0.68162861  0.87599224  0.28567293
   0.31859529  0.12409986  0.71448708
unknown system                          
           1
     6.309134   -0.393761   -0.153382
    -0.680549    9.369368   -0.692868
    -0.168839   -0.391247    4.991333
   V    Fe
  17   3
Direct configuration=    23
   0.32284207  0.27379212  0.35797147
   0.67715251  0.72632533  0.64216647
   0.78592213  0.18858537  0.44750993
   0.21459769  0.81171557  0.55255542
   0.87435879  0.73088099 -0.04555447
   0.12615622  0.26926774  0.04569817
   0.31432456  0.72170484 -0.03191573
   0.68572393  0.27862406  0.03220620
   0.23849719  0.53710239  0.26368123
   0.76156092  0.46275761  0.73646563
   0.76777256  0.58698016  0.25293851
   0.23256406  0.41275060  0.74722098
   0.19458347  0.99062386  0.19537573
   0.80557613  0.00954007  0.80479351
   0.00010108  0.50060536  0.50059158
   0.50007872  0.50052423 -0.00004334
   0.50019113  0.00025339  0.00024137
   0.00005395  0.00012709  0.50016357
   0.66009148  0.86628348  0.29587310
   0.34009141  0.13379575  0.70430070
unknown system                          
           1
     6.512048   -0.641553    0.081762
    -1.077753    9.781567   -0.990502
     0.005673   -0.577148    4.586138
   V    Fe
  17   3
Direct configuration=    24
   0.36720889  0.28880775  0.32569737
   0.63267826  0.71127021  0.67443863
   0.79815093  0.15864919  0.41753105
   0.20256799  0.84170994  0.58236010
   0.93558483  0.72342183 -0.02827585
   0.06513925  0.27664439  0.02830455
   0.33898178  0.70029100 -0.05681829
   0.66093202  0.30011488  0.05724514
   0.23352074  0.53722800  0.28015272
   0.76641840  0.46239991  0.71988618
   0.77474879  0.59788276  0.25222465
   0.22561129  0.40154119  0.74784304
   0.17165288  0.99033565  0.15039617
   0.82840267  0.00982965  0.84965937
   0.00016574  0.50085633  0.50095075
   0.50006714  0.50076795 -0.00006230
   0.50025949  0.00028926  0.00028604
   0.00004786  0.00014678  0.50021703
   0.61686210  0.84697254  0.31754719
   0.38323896  0.15308080  0.68265645
unknown system                          
           1
     6.580971   -0.692216    0.087252
    -1.164564    9.787275   -1.067597
     0.010767   -0.621836    4.500071
   V    Fe
  17   3
Direct configuration=    25
   0.37989336  0.29130613  0.31685497
   0.61999926  0.70877480  0.68322413
   0.79985691  0.15310211  0.41054425
   0.20092252  0.84725487  0.58929877
   0.95116399  0.72417518 -0.02512524
   0.04953725  0.27588035  0.02518899
   0.34256058  0.69720785 -0.06312587
   0.65732102  0.30324530  0.06354965
   0.23430811  0.53974074  0.28516785
   0.76563674  0.45979947  0.71479729
   0.77813101  0.60116179  0.25609054
   0.22221779  0.39818903  0.74388031
   0.16872277  0.99067691  0.13521020
   0.83131306  0.00948136  0.86481369
   0.00021105  0.50091487  0.50108179
   0.50006552  0.50083824  0.00000998
   0.50025507  0.00029706  0.00031484
   0.00005111  0.00015032  0.50022128
   0.60748922  0.84306695  0.32247193
   0.39258367  0.15697666  0.67777066
unknown system                          
           1
     6.662604   -0.752221    0.093754
    -1.267383    9.794035   -1.158910
     0.016801   -0.674765    4.398131
   V    Fe
  17   3
Direct configuration=    26
   0.39480883  0.29427543  0.30621851
   0.60509023  0.70580866  0.69379185
   0.80176782  0.14648288  0.40198617
   0.19908254  0.85387154  0.59779863
   0.96945036  0.72517365 -0.02130107
   0.03122393  0.27486933  0.02140697
   0.34670756  0.69352589 -0.07081264
   0.65313702  0.30698314  0.07123368
   0.23527298  0.54276036  0.29128097
   0.76467715  0.45667534  0.70859323
   0.78215136  0.60509612  0.26083029
   0.21818301  0.39416721  0.73902202
   0.16528713  0.99096023  0.11686160
   0.83472545  0.00918939  0.88312390
   0.00026516  0.50098547  0.50124137
   0.50006477  0.50092211  0.00009878
   0.50025002  0.00030650  0.00034981
   0.00005497  0.00015457  0.50022648
   0.59643462  0.83841883  0.32834449
   0.40360509  0.16161336  0.67194497
unknown system                          
           1
     6.707269   -0.731507    0.028264
    -1.246002    9.686903   -1.168177
    -0.028712   -0.677551    4.396843
   V    Fe
  17   3
Direct configuration=    27
   0.39722075  0.29452010  0.30508743
   0.60273011  0.70560595  0.69485321
   0.80111761  0.14746734  0.40564270
   0.19975089  0.85287548  0.59413125
   0.97245580  0.72688481 -0.02160367
   0.02811712  0.27320590  0.02189019
   0.34421307  0.69522148 -0.07079460
   0.65559353  0.30532287  0.07113426
   0.23804365  0.54561973  0.29254803
   0.76198607  0.45371118  0.70721390
   0.78468235  0.60794038  0.26712336
   0.21563575  0.39127154  0.73255686
   0.16790693  0.99295115  0.11221853
   0.83208953  0.00719279  0.88777164
   0.00027541  0.50101393  0.50132329
   0.50008665  0.50094923  0.00027594
   0.50022155  0.00030170  0.00033707
   0.00008057  0.00015046  0.50020694
   0.59639540  0.83877046  0.32923119
   0.40363726  0.16126353  0.67109246
unknown system                          
           1
     6.841261   -0.669363   -0.168208
    -1.181860    9.365506   -1.195980
    -0.165252   -0.685909    4.392979
   V    Fe
  17   3
Direct configuration=    28
   0.40438223  0.29524766  0.30180126
   0.59572139  0.70500528  0.69793299
   0.79925352  0.15046667  0.41660435
   0.20166886  0.84984083  0.58313768
   0.98139814  0.73206089 -0.02235480
   0.01887639  0.26817560  0.02317981
   0.33677625  0.70037826 -0.07082288
   0.66291538  0.30027322  0.07091721
   0.24631559  0.55428466  0.29651551
   0.75394923  0.44472767  0.70291129
   0.79234498  0.61657335  0.28616534
   0.20792123  0.38248220  0.71299685
   0.17560901  0.99896694  0.09842735
   0.82433952  0.00115987  0.90157608
   0.00030755  0.50110043  0.50157005
   0.50015546  0.50103187  0.00080907
   0.50013648  0.00028723  0.00029754
   0.00015645  0.00013780  0.50014934
   0.59629590  0.83983974  0.33189625
   0.40371644  0.16019983  0.66852973
unknown system                          
           1
     7.109247   -0.545076   -0.561150
    -1.053575    8.722711   -1.251586
    -0.438333   -0.702626    4.385250
   V    Fe
  17   3
Direct configuration=    29
   0.41828865  0.29666733  0.29584734
   0.58210537  0.70384579  0.70349023
   0.79602864  0.15675055  0.43851507
   0.20499831  0.84348313  0.56116643
   0.99887505  0.74268675 -0.02293411
   0.00083544  0.25785723  0.02481775
   0.32216010  0.71112828 -0.07135076
   0.67729538  0.28974490  0.07094683
   0.26265050  0.57216472  0.30544884
   0.73806356  0.42618398  0.69331610
   0.80810168  0.63446939  0.32526553
   0.19204248  0.36426031  0.67284878
   0.19011530  0.01127771  0.07162744
   0.80973989 -0.01118583  0.92839794
   0.00038018  0.50128046  0.50207021
   0.50031174  0.50120500  0.00188631
   0.49996809  0.00025792  0.00021056
   0.00030298  0.00011055  0.50003994
   0.59620359  0.84206817  0.33726424
   0.40377309  0.15798366  0.66336533
unknown system                          
           1
     7.220784   -0.528934   -0.581990
    -1.051709    8.642579   -1.238087
    -0.458661   -0.691648    4.387239
   V    Fe
  17   3
Direct configuration=    30
   0.41699139  0.29838449  0.29715331
   0.58332716  0.70218080  0.70235062
   0.79551732  0.15953610  0.45885024
   0.20558412  0.84066290  0.54073375
   0.99690794  0.74370228 -0.02334313
   0.00256643  0.25691264  0.02519683
   0.31453668  0.71472950 -0.06621317
   0.68492375  0.28616257  0.06602520
   0.26264734  0.57022763  0.30005591
   0.73788423  0.42826832  0.69918018
   0.81052196  0.64754444  0.33763143
   0.18980740  0.35140845  0.66060262
   0.19125249  0.01832895  0.08087974
   0.80859688 -0.01814203  0.91911056
   0.00081722  0.50101082  0.50219748
   0.50007650  0.50095982  0.00113882
   0.50000593  0.00030887  0.00030068
   0.00034342  0.00007253  0.50015226
   0.59898491  0.84388227  0.34347517
   0.40094692  0.15609865  0.65676150
unknown system                          
           1
     7.387671   -0.504782   -0.613172
    -1.048917    8.522683   -1.217888
    -0.489078   -0.675223    4.390214
   V    Fe
  17   3
Direct configuration=    31
   0.41508878  0.30098065  0.29910203
   0.58511936  0.69966344  0.70065048
   0.79484856  0.16371000  0.48926065
   0.20636215  0.83643651  0.51017774
   0.99401097  0.74524447 -0.02396096
   0.00511566  0.25547858  0.02576917
   0.30333549  0.72018970 -0.05855287
   0.69613311  0.28073052  0.05868789
   0.26261842  0.56731153  0.29199116
   0.73764649  0.43140670  0.70794899
   0.81415597  0.66725912  0.35612671
   0.18644698  0.33202989  0.64228685
   0.19297493  0.02895711  0.09471745