 vasp.5.4.4.18Apr17-6-g9f103f2a35 (build Jul 11 2019 11:52:51) complex          
  
 executed on             LinuxIFC date 2023.11.29  17:01:29
 running on    4 total cores
 distrk:  each k-point on    4 cores,    1 groups
 distr:  one band on NCORES_PER_BAND=   1 cores,    4 groups


--------------------------------------------------------------------------------------------------------


 INCAR:
 POTCAR:    PAW_PBE V 08Apr2002                   
 POTCAR:    PAW_PBE Fe 06Sep2000                  
 POTCAR:    PAW_PBE V 08Apr2002                   
   VRHFIN =V: p6 d4 s1                                                          
   LEXCH  = PE                                                                  
   EATOM  =   170.8679 eV,   12.5584 Ry                                         
                                                                                
   TITEL  = PAW_PBE V 08Apr2002                                                 
   LULTRA =        F    use ultrasoft PP ?                                      
   IUNSCR =        1    unscreen: 0-lin 1-nonlin 2-no                           
   RPACOR =    2.000    partial core radius                                     
   POMASS =   50.941; ZVAL   =    5.000    mass and valenz                      
   RCORE  =    2.700    outmost cutoff radius                                   
   RWIGS  =    2.500; RWIGS  =    1.323    wigner-seitz radius (au A)           
   ENMAX  =  192.543; ENMIN  =  144.408 eV                                      
   RCLOC  =    1.779    cutoff for local pot                                    
   LCOR   =        T    correct aug charges                                     
   LPAW   =        T    paw PP                                                  
   EAUG   =  358.662                                                            
   DEXC   =    0.000                                                            
   RMAX   =    2.768    core radius for proj-oper                               
   RAUG   =    1.300    factor for augmentation sphere                          
   RDEP   =    2.762    radius for radial grids                                 
   RDEPT  =    2.240    core radius for aug-charge                              
                                                                                
   Atomic configuration                                                         
    9 entries                                                                   
     n  l   j            E        occ.                                          
     1  0  0.50     -5360.7193   2.0000                                         
     2  0  0.50      -598.4546   2.0000                                         
     2  1  1.50      -499.0155   6.0000                                         
     3  0  0.50       -66.5711   2.0000                                         
     3  1  1.50       -40.5282   6.0000                                         
     3  2  2.50        -2.4291   4.0000                                         
     4  0  0.50        -3.8743   1.0000                                         
     4  1  0.50        -2.7212   0.0000                                         
     4  3  2.50        -1.3606   0.0000                                         
   Description                                                                  
     l       E           TYP  RCUT    TYP  RCUT                                 
     2     -2.4290901     23  2.700                                             
     2     -3.7896727     23  2.700                                             
     0     -3.8742752     23  2.700                                             
     0     27.2116520     23  2.700                                             
     1     -2.7211652     23  2.700                                             
     1     27.2116520     23  2.700                                             
  local pseudopotential read in
  partial core-charges read in
  partial kinetic energy density read in
  atomic valenz-charges read in
  non local Contribution for L=           2  read in
    real space projection operators read in
  non local Contribution for L=           2  read in
    real space projection operators read in
  non local Contribution for L=           0  read in
    real space projection operators read in
  non local Contribution for L=           0  read in
    real space projection operators read in
  non local Contribution for L=           1  read in
    real space projection operators read in
  non local Contribution for L=           1  read in
    real space projection operators read in
    PAW grid and wavefunctions read in
 
   number of l-projection  operators is LMAX  =           6
   number of lm-projection operators is LMMAX =          18
 
 POTCAR:    PAW_PBE Fe 06Sep2000                  
   VRHFIN =Fe:  d7 s1                                                           
   LEXCH  = PE                                                                  
   EATOM  =   594.3153 eV,   43.6809 Ry                                         
                                                                                
   TITEL  = PAW_PBE Fe 06Sep2000                                                
   LULTRA =        F    use ultrasoft PP ?                                      
   IUNSCR =        1    unscreen: 0-lin 1-nonlin 2-no                           
   RPACOR =    2.000    partial core radius                                     
   POMASS =   55.847; ZVAL   =    8.000    mass and valenz                      
   RCORE  =    2.300    outmost cutoff radius                                   
   RWIGS  =    2.460; RWIGS  =    1.302    wigner-seitz radius (au A)           
   ENMAX  =  267.882; ENMIN  =  200.911 eV                                      
   RCLOC  =    1.701    cutoff for local pot                                    
   LCOR   =        T    correct aug charges                                     
   LPAW   =        T    paw PP                                                  
   EAUG   =  511.368                                                            
   DEXC   =    0.000                                                            
   RMAX   =    2.356    core radius for proj-oper                               
   RAUG   =    1.300    factor for augmentation sphere                          
   RDEP   =    2.442    radius for radial grids                                 
   RDEPT  =    1.890    core radius for aug-charge                              
                                                                                
   Atomic configuration                                                         
    9 entries                                                                   
     n  l   j            E        occ.                                          
     1  0  0.50     -6993.8440   2.0000                                         
     2  0  0.50      -814.6047   2.0000                                         
     2  1  1.50      -693.3689   6.0000                                         
     3  0  0.50       -89.4732   2.0000                                         
     3  1  1.50       -55.6373   6.0000                                         
     3  2  2.50        -3.8151   7.0000                                         
     4  0  0.50        -4.2551   1.0000                                         
     4  1  1.50        -3.4015   0.0000                                         
     4  3  2.50        -1.3606   0.0000                                         
   Description                                                                  
     l       E           TYP  RCUT    TYP  RCUT                                 
     2     -3.8151135     23  2.300                                             
     2     -5.1756961     23  2.300                                             
     0     -4.2550963     23  2.300                                             
     0      7.2035603     23  2.300                                             
     1     -2.7211652     23  2.300                                             
     1     18.4316424     23  2.300                                             
  local pseudopotential read in
  partial core-charges read in
  partial kinetic energy density read in
  atomic valenz-charges read in
  non local Contribution for L=           2  read in
    real space projection operators read in
  non local Contribution for L=           2  read in
    real space projection operators read in
  non local Contribution for L=           0  read in
    real space projection operators read in
  non local Contribution for L=           0  read in
    real space projection operators read in
  non local Contribution for L=           1  read in
    real space projection operators read in
  non local Contribution for L=           1  read in
    real space projection operators read in
    PAW grid and wavefunctions read in
 
   number of l-projection  operators is LMAX  =           6
   number of lm-projection operators is LMMAX =          18
 

 ----------------------------------------------------------------------------- 
|                                                                             |
|  ADVICE TO THIS USER RUNNING 'VASP/VAMP'   (HEAR YOUR MASTER'S VOICE ...):  |
|                                                                             |
|      You have a (more or less) 'large supercell' and for larger cells       |
|      it might be more efficient to use real space projection opertators     |
|      So try LREAL= Auto  in the INCAR   file.                               |
|      Mind:          For very  accurate calculation you might also keep the  |
|      reciprocal projection scheme          (i.e. LREAL=.FALSE.)             |
|                                                                             |
 ----------------------------------------------------------------------------- 

  PAW_PBE V 08Apr2002                   :
 energy of atom  1       EATOM= -170.8679
 kinetic energy error for atom=    0.0066 (will be added to EATOM!!)
  PAW_PBE Fe 06Sep2000                  :
 energy of atom  2       EATOM= -594.3153
 kinetic energy error for atom=    0.0346 (will be added to EATOM!!)
 
 
 POSCAR: EA0     7.448  9.568  4.008 66.30 85.98 
  positions in direct lattice
  No initial velocities read in
 exchange correlation table for  LEXCH =        8
   RHO(1)=    0.500       N(1)  =     2000
   RHO(2)=  100.500       N(2)  =     4000
 


--------------------------------------------------------------------------------------------------------


 ion  position               nearest neighbor table
   1  0.765  0.843  0.271-  17 2.27  14 2.31   9 2.39  10 2.44   5 2.64  19 2.64   8 2.68  18 2.68
                            17 2.82   4 3.05  14 3.10
   2  0.811  0.391  0.271-  12 2.21   9 2.34   5 2.44  13 2.52  13 2.54  18 2.61  12 2.66  10 2.82
                             6 2.84   7 2.87
   3  0.169  0.030  0.271-  20 2.04  14 2.18  16 2.50  18 2.64  16 2.68  14 2.81  19 2.83  11 2.88
                             4 2.99   7 3.02
   4  0.360  0.766  0.271-  11 2.14   8 2.37  17 2.37  16 2.50  15 2.57  11 2.59  17 2.63   5 2.68
                            19 2.97   3 2.99   1 3.05
   5  0.616  0.584  0.271-  17 2.21  15 2.30  12 2.38   2 2.44   9 2.47   1 2.64   4 2.68   9 2.92
                            15 2.96   7 3.09
   6  0.194  0.410  0.271-  20 2.17  13 2.20  15 2.25   7 2.31  13 2.67  11 2.82   2 2.84   8 2.95
                            15 2.96
   7  0.442  0.280  0.271-  12 2.19   6 2.31  15 2.32  20 2.35  19 2.40  16 2.41  12 2.75   2 2.87
                            20 2.93   3 3.02   5 3.09  10 3.14
   8  0.050  0.688  0.271-  11 2.11   9 2.23   4 2.37  11 2.44  14 2.64   1 2.68   9 2.75  13 2.94
                             6 2.95
   9  0.856  0.631  0.771-   8 2.23   2 2.34   1 2.39   5 2.47  11 2.59  17 2.71   8 2.75  13 2.91
                             5 2.92  12 3.11  14 3.15
  10  0.715  0.083  0.770-  18 2.04  19 2.17  18 2.43  14 2.43  16 2.44   1 2.44  19 2.53  12 2.64
                             2 2.82  17 3.03   7 3.14
  11  0.195  0.718  0.771-   8 2.11   4 2.14   8 2.44   9 2.59   4 2.59  15 2.67  17 2.75   6 2.82
                            14 2.85   3 2.88
  12  0.628  0.345  0.771-   7 2.19   2 2.21  15 2.36   5 2.38  10 2.64   2 2.66  19 2.71   7 2.75
                            13 2.85  18 2.95   9 3.11
  13  0.011  0.361  0.771-  20 2.18   6 2.20  18 2.51   2 2.52   2 2.54   6 2.67  12 2.85   9 2.91
                             8 2.94  15 3.09
  14  0.982  0.953  0.771-   3 2.18   1 2.31  18 2.37  10 2.43   8 2.64   3 2.81  11 2.85  20 2.92
                            16 3.06   1 3.10   9 3.15
  15  0.399  0.501  0.771-   6 2.25   5 2.30   7 2.32  12 2.36   4 2.57  11 2.67  17 2.84   6 2.96
                             5 2.96  20 2.98  13 3.09
  16  0.389  0.030  0.771-  19 2.19  20 2.24   7 2.41  10 2.44  19 2.47   4 2.50   3 2.50   3 2.68
                            17 2.80  14 3.06
  17  0.562  0.780  0.771-   5 2.21   1 2.27   4 2.37  19 2.57   4 2.63   9 2.71  11 2.75  16 2.80
                             1 2.82  15 2.84  10 3.03
  18  0.844  0.122  0.270-  10 2.04  19 2.24  14 2.37  10 2.43  13 2.51   2 2.61   3 2.64   1 2.68
                            12 2.95
  19  0.550  0.050  0.271-  10 2.17  16 2.19  18 2.24   7 2.40  16 2.47  10 2.53  17 2.57   1 2.64
                            12 2.71   3 2.83   4 2.97
  20  0.218  0.212  0.771-   3 2.04   6 2.17  13 2.18  16 2.24   7 2.35  14 2.92   7 2.93  15 2.98

 
  LATTYP: Found a triclinic cell.
 ALAT       =     9.5675371873
 B/A-ratio  =     1.9035562769
 C/A-ratio  =     0.4189225152
 COS(alpha) =     0.0109034815
 COS(beta)  =     0.4020093960
 COS(gamma) =     0.8414505246
  
  Lattice vectors:
  
 A1 = (   0.7549890000,  -9.5377020000,   0.0000000000)
 A2 = (  -5.3759870000, -15.7982800000,   7.2940140000)
 A3 = (  -0.2810220000,  -1.6385620000,  -3.6470070000)


Analysis of symmetry for initial positions (statically):
=====================================================================
 Subroutine PRICEL returns:
 Original cell was already a primitive cell.
 

 Routine SETGRP: Setting up the symmetry group for a 
 triclinic supercell.


 Subroutine GETGRP returns: Found  1 space group operations
 (whereof  1 operations were pure point group operations)
 out of a pool of  2 trial point group operations.


The static configuration has the point symmetry C_1 .


Analysis of symmetry for dynamics (positions and initial velocities):
=====================================================================
 Subroutine PRICEL returns:
 Original cell was already a primitive cell.
 

 Routine SETGRP: Setting up the symmetry group for a 
 triclinic supercell.


 Subroutine GETGRP returns: Found  1 space group operations
 (whereof  1 operations were pure point group operations)
 out of a pool of  2 trial point group operations.


The dynamic configuration has the point symmetry C_1 .


 Subroutine INISYM returns: Found  1 space group operations
 (whereof  1 operations are pure point group operations),
 and found     1 'primitive' translations

 
 
 KPOINTS: EA                                      

Automatic generation of k-mesh.
Space group operators:
 irot       det(A)        alpha          n_x          n_y          n_z        tau_x        tau_y        tau_z
    1     1.000000     0.000000     1.000000     0.000000     0.000000     0.000000     0.000000     0.000000
 
 Subroutine IBZKPT returns following result:
 ===========================================
 
 Found      8 irreducible k-points:
 
 Following reciprocal coordinates:
            Coordinates               Weight
  0.000000  0.000000  0.000000      1.000000
  0.500000  0.000000  0.000000      1.000000
  0.000000  0.500000  0.000000      1.000000
  0.500000  0.500000  0.000000      1.000000
  0.000000  0.000000  0.333333      2.000000
  0.500000  0.000000  0.333333      2.000000
  0.000000  0.500000  0.333333      2.000000
  0.500000  0.500000  0.333333      2.000000
 
 Following cartesian coordinates:
            Coordinates               Weight
  0.000000  0.000000  0.000000      1.000000
  0.067132  0.005314 -0.007560      1.000000
  0.000000  0.052424 -0.023553      1.000000
  0.067132  0.057738 -0.031114      1.000000
  0.000000  0.000000  0.091399      2.000000
  0.067132  0.005314  0.083839      2.000000
  0.000000  0.052424  0.067846      2.000000
  0.067132  0.057738  0.060285      2.000000
 


--------------------------------------------------------------------------------------------------------




 Dimension of arrays:
   k-points           NKPTS =      8   k-points in BZ     NKDIM =      8   number of bands    NBANDS=     68
   number of dos      NEDOS =    301   number of ions     NIONS =     20
   non local maximal  LDIM  =      6   non local SUM 2l+1 LMDIM =     18
   total plane-waves  NPLWV =  19200
   max r-space proj   IRMAX =      1   max aug-charges    IRDMAX=   4693
   dimension x,y,z NGX =    30 NGY =   40 NGZ =   16
   dimension x,y,z NGXF=    60 NGYF=   80 NGZF=   32
   support grid    NGXF=    60 NGYF=   80 NGZF=   32
   ions per type =              17   3
   NGX,Y,Z   is equivalent  to a cutoff of   6.70,  6.95,  6.64 a.u.
   NGXF,Y,Z  is equivalent  to a cutoff of  13.39, 13.90, 13.27 a.u.

 SYSTEM =  unknown system                          
 POSCAR =  EA0     7.448  9.568  4.008 66.30 85.98 

 Startparameter for this run:
   NWRITE =      2    write-flag & timer
   PREC   = normal    normal or accurate (medium, high low for compatibility)
   ISTART =      0    job   : 0-new  1-cont  2-samecut
   ICHARG =      2    charge: 1-file 2-atom 10-const
   ISPIN  =      1    spin polarized calculation?
   LNONCOLLINEAR =      F non collinear calculations
   LSORBIT =      F    spin-orbit coupling
   INIWAV =      1    electr: 0-lowe 1-rand  2-diag
   LASPH  =      F    aspherical Exc in radial PAW
   METAGGA=      F    non-selfconsistent MetaGGA calc.

 Electronic Relaxation 1
   ENCUT  =  267.9 eV  19.69 Ry    4.44 a.u.   9.94 12.77  5.35*2*pi/ulx,y,z
   ENINI  =  267.9     initial cutoff
   ENAUG  =  511.4 eV  augmentation charge cutoff
   NELM   =     60;   NELMIN=  2; NELMDL= -5     # of ELM steps 
   EDIFF  = 0.1E-04   stopping-criterion for ELM
   LREAL  =      F    real-space projection
   NLSPLINE    = F    spline interpolate recip. space projectors
   LCOMPAT=      F    compatible to vasp.4.4
   GGA_COMPAT  = T    GGA compatible to vasp.4.4-vasp.4.6
   LMAXPAW     = -100 max onsite density
   LMAXMIX     =    2 max onsite mixed and CHGCAR
   VOSKOWN=      0    Vosko Wilk Nusair interpolation
   ROPT   =    0.00000   0.00000
 Ionic relaxation
   EDIFFG = -.1E-01   stopping-criterion for IOM
   NSW    =    500    number of steps for IOM
   NBLOCK =      1;   KBLOCK =    500    inner block; outer block 
   IBRION =      2    ionic relax: 0-MD 1-quasi-New 2-CG
   NFREE  =      1    steps in history (QN), initial steepest desc. (CG)
   ISIF   =      3    stress and relaxation
   IWAVPR =     11    prediction:  0-non 1-charg 2-wave 3-comb
   ISYM   =      2    0-nonsym 1-usesym 2-fastsym
   LCORR  =      T    Harris-Foulkes like correction to forces

   POTIM  = 0.5000    time-step for ionic-motion
   TEIN   =    0.0    initial temperature
   TEBEG  =    0.0;   TEEND  =   0.0 temperature during run
   SMASS  =  -3.00    Nose mass-parameter (am)
   estimated Nose-frequenzy (Omega)   =  0.10E-29 period in steps =****** mass=  -0.127E-26a.u.
   SCALEE = 1.0000    scale energy and forces
   NPACO  =    256;   APACO  = 16.0  distance and # of slots for P.C.
   PSTRESS=    0.0 pullay stress

  Mass of Ions in am
   POMASS =  50.94 55.85
  Ionic Valenz
   ZVAL   =   5.00  8.00
  Atomic Wigner-Seitz radii
   RWIGS  =  -1.00 -1.00
  virtual crystal weights 
   VCA    =   1.00  1.00
   NELECT =     109.0000    total number of electrons
   NUPDOWN=      -1.0000    fix difference up-down

 DOS related values:
   EMIN   =  10.00;   EMAX   =-10.00  energy-range for DOS
   EFERMI =   0.00
   ISMEAR =     0;   SIGMA  =   0.10  broadening in eV -4-tet -1-fermi 0-gaus

 Electronic relaxation 2 (details)
   IALGO  =     38    algorithm
   LDIAG  =      T    sub-space diagonalisation (order eigenvalues)
   LSUBROT=      F    optimize rotation matrix (better conditioning)
   TURBO    =      0    0=normal 1=particle mesh
   IRESTART =      0    0=no restart 2=restart with 2 vectors
   NREBOOT  =      0    no. of reboots
   NMIN     =      0    reboot dimension
   EREF     =   0.00    reference energy to select bands
   IMIX   =      4    mixing-type and parameters
     AMIX     =   0.40;   BMIX     =  1.00
     AMIX_MAG =   1.60;   BMIX_MAG =  1.00
     AMIN     =   0.10
     WC   =   100.;   INIMIX=   1;  MIXPRE=   1;  MAXMIX= -45

 Intra band minimization:
   WEIMIN = 0.0010     energy-eigenvalue tresh-hold
   EBREAK =  0.37E-07  absolut break condition
   DEPER  =   0.30     relativ break condition  

   TIME   =   0.40     timestep for ELM

  volume/ion in A,a.u.               =      12.95        87.42
  Fermi-wavevector in a.u.,A,eV,Ry     =   1.226714  2.318154 20.474433  1.504828
  Thomas-Fermi vector in A             =   2.361705
 
 Write flags
   LWAVE        =      F    write WAVECAR
   LDOWNSAMPLE  =      F    k-point downsampling of WAVECAR
   LCHARG       =      F    write CHGCAR
   LVTOT        =      F    write LOCPOT, total local potential
   LVHAR        =      F    write LOCPOT, Hartree potential only
   LELF         =      F    write electronic localiz. function (ELF)
   LORBIT       =      0    0 simple, 1 ext, 2 COOP (PROOUT), +10 PAW based schemes


 Dipole corrections
   LMONO  =      F    monopole corrections only (constant potential shift)
   LDIPOL =      F    correct potential (dipole corrections)
   IDIPOL =      0    1-x, 2-y, 3-z, 4-all directions 
   EPSILON=  1.0000000 bulk dielectric constant

 Exchange correlation treatment:
   GGA     =    --    GGA type
   LEXCH   =     8    internal setting for exchange type
   VOSKOWN=      0    Vosko Wilk Nusair interpolation
   LHFCALC =     F    Hartree Fock is set to
   LHFONE  =     F    Hartree Fock one center treatment
   AEXX    =    0.0000 exact exchange contribution

 Linear response parameters
   LEPSILON=     F    determine dielectric tensor
   LRPA    =     F    only Hartree local field effects (RPA)
   LNABLA  =     F    use nabla operator in PAW spheres
   LVEL    =     F    velocity operator in full k-point grid
   LINTERFAST=   F  fast interpolation
   KINTER  =     0    interpolate to denser k-point grid
   CSHIFT  =0.1000    complex shift for real part using Kramers Kronig
   OMEGAMAX=  -1.0    maximum frequency
   DEG_THRESHOLD= 0.2000000E-02 threshold for treating states as degnerate
   RTIME   =   -0.100 relaxation time in fs
  (WPLASMAI=    0.000 imaginary part of plasma frequency in eV, 0.658/RTIME)
   DFIELD  = 0.0000000 0.0000000 0.0000000 field for delta impulse in time
 
 Orbital magnetization related:
   ORBITALMAG=     F  switch on orbital magnetization
   LCHIMAG   =     F  perturbation theory with respect to B field
   DQ        =  0.001000  dq finite difference perturbation B field
   LLRAUG    =     F  two centre corrections for induced B field



--------------------------------------------------------------------------------------------------------


 conjugate gradient relaxation of ions
 charge density and potential will be updated during run
 non-spin polarized calculation
 Variant of blocked Davidson
 Davidson routine will perform the subspace rotation
 perform sub-space diagonalisation
    after iterative eigenvector-optimisation
 modified Broyden-mixing scheme, WC =      100.0
 initial mixing is a Kerker type mixing with AMIX =  0.4000 and BMIX =      1.0000
 Hartree-type preconditioning will be used
 using additional bands           13
 reciprocal scheme for non local part
 use partial core corrections
 calculate Harris-corrections to forces 
   (improved forces if not selfconsistent)
 use gradient corrections 
 use of overlap-Matrix (Vanderbilt PP)
 Gauss-broadening in eV      SIGMA  =   0.10


--------------------------------------------------------------------------------------------------------


  energy-cutoff  :      267.88
  volume of cell :      259.07
      direct lattice vectors                 reciprocal lattice vectors
     7.448009000  0.000000000  0.000000000     0.134264070  0.010628126 -0.015120892
    -0.754989000  9.537702000  0.000000000     0.000000000  0.104847059 -0.047106684
     0.281022000  1.638562000  3.647007000     0.000000000  0.000000000  0.274197445

  length of vectors
     7.448009000  9.567537187  4.008056742     0.135530214  0.114943227  0.274197445


 
 k-points in units of 2pi/SCALE and weight: EA                                      
   0.00000000  0.00000000  0.00000000       0.083
   0.06713203  0.00531406 -0.00756045       0.083
   0.00000000  0.05242353 -0.02355334       0.083
   0.06713203  0.05773759 -0.03111379       0.083
   0.00000000  0.00000000  0.09139915       0.167
   0.06713203  0.00531406  0.08383870       0.167
   0.00000000  0.05242353  0.06784581       0.167
   0.06713203  0.05773759  0.06028536       0.167
 
 k-points in reciprocal lattice and weights: EA                                      
   0.00000000  0.00000000  0.00000000       0.083
   0.50000000  0.00000000  0.00000000       0.083
   0.00000000  0.50000000  0.00000000       0.083
   0.50000000  0.50000000  0.00000000       0.083
   0.00000000  0.00000000  0.33333333       0.167
   0.50000000  0.00000000  0.33333333       0.167
   0.00000000  0.50000000  0.33333333       0.167
   0.50000000  0.50000000  0.33333333       0.167
 
 position of ions in fractional coordinates (direct lattice) 
   0.76538400  0.84335800  0.27062900
   0.81145200  0.39141300  0.27071500
   0.16882100  0.02957500  0.27073200
   0.35971200  0.76567900  0.27067600
   0.61567100  0.58430100  0.27066500
   0.19390700  0.40998200  0.27064000
   0.44238000  0.28042500  0.27084600
   0.05008700  0.68823100  0.27062300
   0.85633400  0.63123600  0.77059500
   0.71525500  0.08328000  0.77040400
   0.19471900  0.71805500  0.77065200
   0.62805500  0.34489100  0.77077400
   0.01129700  0.36090400  0.77059600
   0.98233400  0.95308800  0.77063500
   0.39921800  0.50140400  0.77064100
   0.38948800  0.02975900  0.77076700
   0.56188300  0.78001000  0.77062300
   0.84449500  0.12204900  0.27033200
   0.55023800  0.05030100  0.27065500
   0.21840000  0.21178700  0.77060200
 
 position of ions in cartesian coordinates  (Angst):
   5.13991361  8.48713968  0.98698586
   5.82426616  4.17676386  0.98729950
   1.31113318  0.72568870  0.98736150
   2.17712490  7.74633754  0.98715727
   4.22044514  6.01639020  0.98711715
   1.21074498  4.35374656  0.98702597
   3.15924612  3.11840805  0.98777726
  -0.07050739  7.00757475  0.98696398
   6.11796125  7.28320854  2.81036536
   5.48085067  2.05665454  2.80966878
   1.12471540  8.11135569  2.81057324
   4.63397483  4.55242857  2.81101817
   0.02821604  4.70486413  2.81036901
   6.81342691 10.35300255  2.81051124
   2.81139183  6.04498499  2.81053312
   3.09504490  1.54678199  2.81099264
   3.81257269  8.70221650  2.81046748
   6.27362995  1.60702273  0.98590270
   4.13626088  0.92324095  0.98708068
   1.68330443  3.28264045  2.81039089
 


--------------------------------------------------------------------------------------------------------


 k-point  1 :   0.0000 0.0000 0.0000  plane waves:    2577
 k-point  2 :   0.5000 0.0000 0.0000  plane waves:    2596
 k-point  3 :   0.0000 0.5000 0.0000  plane waves:    2582
 k-point  4 :   0.5000 0.5000 0.0000  plane waves:    2596
 k-point  5 :   0.0000 0.0000 0.3333  plane waves:    2575
 k-point  6 :   0.5000 0.0000 0.3333  plane waves:    2572
 k-point  7 :   0.0000 0.5000 0.3333  plane waves:    2572
 k-point  8 :   0.5000 0.5000 0.3333  plane waves:    2572

 maximum and minimum number of plane-waves per node :      2596     2572

 maximum number of plane-waves:      2596
 maximum index in each direction: 
   IXMAX=    9   IYMAX=   12   IZMAX=    5
   IXMIN=  -10   IYMIN=  -13   IZMIN=   -5


 serial   3D FFT for wavefunctions
 parallel 3D FFT for charge:
    minimum data exchange during FFTs selected (reduces bandwidth)


 total amount of memory used by VASP MPI-rank0    48044. kBytes
=======================================================================

   base      :      30000. kBytes
   nonl-proj :       6811. kBytes
   fftplans  :       1457. kBytes
   grid      :       3033. kBytes
   one-center:        311. kBytes
   wavefun   :       6432. kBytes
 
     INWAV:  cpu time    0.0000: real time    0.0000
 Broyden mixing: mesh for mixing (old mesh)
   NGX = 19   NGY = 25   NGZ = 11
  (NGX  = 60   NGY  = 80   NGZ  = 32)
  gives a total of   5225 points

 initial charge density was supplied:
 charge density of overlapping atoms calculated
 number of electron     109.0000000 magnetization 
 keeping initial charge density in first step


--------------------------------------------------------------------------------------------------------


 Maximum index for augmentation-charges         1111 (set IRDMAX)


--------------------------------------------------------------------------------------------------------


 First call to EWALD:  gamma=   0.278
 Maximum number of real-space cells 2x 2x 4
 Maximum number of reciprocal cells 3x 4x 2

    FEWALD:  cpu time    0.0023: real time    0.0023


--------------------------------------- Iteration      1(   1)  ---------------------------------------


    POTLOK:  cpu time    0.0301: real time    0.0301
    SETDIJ:  cpu time    0.0166: real time    0.0166
     EDDAV:  cpu time    1.3941: real time    1.3957
       DOS:  cpu time    0.0012: real time    0.0012
    --------------------------------------------
      LOOP:  cpu time    1.4420: real time    1.4437

 eigenvalue-minimisations  :  1088
 total energy-change (2. order) : 0.6635616E+03  (-0.2302384E+04)
 number of electron     109.0000000 magnetization 
 augmentation part      109.0000000 magnetization 

 Free energy of the ion-electron system (eV)
  ---------------------------------------------------
  alpha Z        PSCENC =       552.45266882
  Ewald energy   TEWEN  =     -5073.89273949
  -Hartree energ DENC   =      -974.89199836
  -exchange      EXHF   =         0.00000000
  -V(xc)+E(xc)   XCENC  =      -770.14570875
  PAW double counting   =      5171.05454107    -4356.08836938
  entropy T*S    EENTRO =        -0.07906132
  eigenvalues    EBANDS =      1427.66808940
  atomic energy  EATOM  =      4687.48422623
  Solvation  Ediel_sol  =         0.00000000
  ---------------------------------------------------
  free energy    TOTEN  =       663.56164822 eV

  energy without entropy =      663.64070954  energy(sigma->0) =      663.60117888


--------------------------------------------------------------------------------------------------------




--------------------------------------- Iteration      1(   2)  ---------------------------------------


     EDDAV:  cpu time    1.3900: real time    1.3914
       DOS:  cpu time    0.0013: real time    0.0013
    --------------------------------------------
      LOOP:  cpu time    1.3912: real time    1.3927

 eigenvalue-minimisations  :  1088
 total energy-change (2. order) :-0.7073063E+03  (-0.6832501E+03)
 number of electron     109.0000000 magnetization 
 augmentation part      109.0000000 magnetization 

 Free energy of the ion-electron system (eV)
  ---------------------------------------------------
  alpha Z        PSCENC =       552.45266882
  Ewald energy   TEWEN  =     -5073.89273949
  -Hartree energ DENC   =      -974.89199836
  -exchange      EXHF   =         0.00000000
  -V(xc)+E(xc)   XCENC  =      -770.14570875
  PAW double counting   =      5171.05454107    -4356.08836938
  entropy T*S    EENTRO =        -0.05197727
  eigenvalues    EBANDS =       720.33468700
  atomic energy  EATOM  =      4687.48422623
  Solvation  Ediel_sol  =         0.00000000
  ---------------------------------------------------
  free energy    TOTEN  =       -43.74467014 eV

  energy without entropy =      -43.69269286  energy(sigma->0) =      -43.71868150


--------------------------------------------------------------------------------------------------------




--------------------------------------- Iteration      1(   3)  ---------------------------------------


     EDDAV:  cpu time    2.1209: real time    2.1238
       DOS:  cpu time    0.0021: real time    0.0021
    --------------------------------------------
      LOOP:  cpu time    2.1230: real time    2.1259

 eigenvalue-minimisations  :  1868
 total energy-change (2. order) :-0.1245582E+03  (-0.1168576E+03)
 number of electron     109.0000000 magnetization 
 augmentation part      109.0000000 magnetization 

 Free energy of the ion-electron system (eV)
  ---------------------------------------------------
  alpha Z        PSCENC =       552.45266882
  Ewald energy   TEWEN  =     -5073.89273949
  -Hartree energ DENC   =      -974.89199836
  -exchange      EXHF   =         0.00000000
  -V(xc)+E(xc)   XCENC  =      -770.14570875
  PAW double counting   =      5171.05454107    -4356.08836938
  entropy T*S    EENTRO =        -0.09795109
  eigenvalues    EBANDS =       595.82243251
  atomic energy  EATOM  =      4687.48422623
  Solvation  Ediel_sol  =         0.00000000
  ---------------------------------------------------
  free energy    TOTEN  =      -168.30289844 eV

  energy without entropy =     -168.20494735  energy(sigma->0) =     -168.25392290


--------------------------------------------------------------------------------------------------------




--------------------------------------- Iteration      1(   4)  ---------------------------------------


     EDDAV:  cpu time    2.0331: real time    2.0355
       DOS:  cpu time    0.0015: real time    0.0015
    --------------------------------------------
      LOOP:  cpu time    2.0345: real time    2.0369

 eigenvalue-minimisations  :  1784
 total energy-change (2. order) :-0.1428239E+02  (-0.1349445E+02)
 number of electron     109.0000000 magnetization 
 augmentation part      109.0000000 magnetization 

 Free energy of the ion-electron system (eV)
  ---------------------------------------------------
  alpha Z        PSCENC =       552.45266882
  Ewald energy   TEWEN  =     -5073.89273949
  -Hartree energ DENC   =      -974.89199836
  -exchange      EXHF   =         0.00000000
  -V(xc)+E(xc)   XCENC  =      -770.14570875
  PAW double counting   =      5171.05454107    -4356.08836938
  entropy T*S    EENTRO =        -0.08879778
  eigenvalues    EBANDS =       581.53089178
  atomic energy  EATOM  =      4687.48422623
  Solvation  Ediel_sol  =         0.00000000
  ---------------------------------------------------
  free energy    TOTEN  =      -182.58528586 eV

  energy without entropy =     -182.49648808  energy(sigma->0) =     -182.54088697


--------------------------------------------------------------------------------------------------------




--------------------------------------- Iteration      1(   5)  ---------------------------------------


     EDDAV:  cpu time    1.9992: real time    2.0015
       DOS:  cpu time    0.0014: real time    0.0014
    CHARGE:  cpu time    0.0565: real time    0.0565
    MIXING:  cpu time    0.0013: real time    0.0013
    --------------------------------------------
      LOOP:  cpu time    2.0584: real time    2.0608

 eigenvalue-minimisations  :  1792
 total energy-change (2. order) :-0.9047540E+00  (-0.8635033E+00)
 number of electron     109.0000282 magnetization 
 augmentation part       37.7262581 magnetization 

 Broyden mixing:
  rms(total) = 0.52324E+01    rms(broyden)= 0.52316E+01
  rms(prec ) = 0.60074E+01
  weight for this iteration     100.00

 Free energy of the ion-electron system (eV)
  ---------------------------------------------------
  alpha Z        PSCENC =       552.45266882
  Ewald energy   TEWEN  =     -5073.89273949
  -Hartree energ DENC   =      -974.89199836
  -exchange      EXHF   =         0.00000000
  -V(xc)+E(xc)   XCENC  =      -770.14570875
  PAW double counting   =      5171.05454107    -4356.08836938
  entropy T*S    EENTRO =        -0.09663748
  eigenvalues    EBANDS =       580.63397751
  atomic energy  EATOM  =      4687.48422623
  Solvation  Ediel_sol  =         0.00000000
  ---------------------------------------------------
  free energy    TOTEN  =      -183.49003982 eV

  energy without entropy =     -183.39340235  energy(sigma->0) =     -183.44172109


--------------------------------------------------------------------------------------------------------




--------------------------------------- Iteration      1(   6)  ---------------------------------------


    POTLOK:  cpu time    0.0279: real time    0.0279
    SETDIJ:  cpu time    0.0170: real time    0.0171
     EDDAV:  cpu time    2.2801: real time    2.2833
       DOS:  cpu time    0.0013: real time    0.0013
    CHARGE:  cpu time    0.0546: real time    0.0547
    MIXING:  cpu time    0.0019: real time    0.0018
    --------------------------------------------
      LOOP:  cpu time    2.3828: real time    2.3861

 eigenvalue-minimisations  :  2096
 total energy-change (2. order) :-0.7777361E+01  (-0.2227270E+02)
 number of electron     109.0000407 magnetization 
 augmentation part       45.8735644 magnetization 

 Broyden mixing:
  rms(total) = 0.49415E+01    rms(broyden)= 0.49408E+01
  rms(prec ) = 0.96897E+01
  weight for this iteration     100.00

 eigenvalues of (default mixing * dielectric matrix)
  average eigenvalue GAMMA=   0.5727
  0.5727

 Free energy of the ion-electron system (eV)
  ---------------------------------------------------
  alpha Z        PSCENC =       552.45266882
  Ewald energy   TEWEN  =     -5073.89273949
  -Hartree energ DENC   =      -846.50304342
  -exchange      EXHF   =         0.00000000
  -V(xc)+E(xc)   XCENC  =      -770.87055207
  PAW double counting   =      6578.04913720    -5755.93348951
  entropy T*S    EENTRO =        -0.10770832
  eigenvalues    EBANDS =       438.05409952
  atomic energy  EATOM  =      4687.48422623
  Solvation  Ediel_sol  =         0.00000000
  ---------------------------------------------------
  free energy    TOTEN  =      -191.26740104 eV

  energy without entropy =     -191.15969271  energy(sigma->0) =     -191.21354688


--------------------------------------------------------------------------------------------------------




--------------------------------------- Iteration      1(   7)  ---------------------------------------


    POTLOK:  cpu time    0.0280: real time    0.0280
    SETDIJ:  cpu time    0.0171: real time    0.0171
     EDDAV:  cpu time    2.3159: real time    2.3181
       DOS:  cpu time    0.0014: real time    0.0014
    CHARGE:  cpu time    0.0533: real time    0.0534
    MIXING:  cpu time    0.0016: real time    0.0016
    --------------------------------------------
      LOOP:  cpu time    2.4173: real time    2.4196

 eigenvalue-minimisations  :  2176
 total energy-change (2. order) : 0.1253355E+02  (-0.3721229E+02)
 number of electron     109.0000225 magnetization 
 augmentation part       43.7180838 magnetization 

 Broyden mixing:
  rms(total) = 0.34632E+01    rms(broyden)= 0.34613E+01
  rms(prec ) = 0.73964E+01
  weight for this iteration     100.00

 eigenvalues of (default mixing * dielectric matrix)
  average eigenvalue GAMMA=   0.6484
  1.1140  0.1828

 Free energy of the ion-electron system (eV)
  ---------------------------------------------------
  alpha Z        PSCENC =       552.45266882
  Ewald energy   TEWEN  =     -5073.89273949
  -Hartree energ DENC   =      -888.28620043
  -exchange      EXHF   =         0.00000000
  -V(xc)+E(xc)   XCENC  =      -768.90464831
  PAW double counting   =      6902.81011878    -6089.88515195
  entropy T*S    EENTRO =        -0.09001238
  eigenvalues    EBANDS =       499.57789111
  atomic energy  EATOM  =      4687.48422623
  Solvation  Ediel_sol  =         0.00000000
  ---------------------------------------------------
  free energy    TOTEN  =      -178.73384762 eV

  energy without entropy =     -178.64383524  energy(sigma->0) =     -178.68884143


--------------------------------------------------------------------------------------------------------




--------------------------------------- Iteration      1(   8)  ---------------------------------------


    POTLOK:  cpu time    0.0261: real time    0.0261
    SETDIJ:  cpu time    0.0170: real time    0.0170
     EDDAV:  cpu time    2.3934: real time    2.3960
       DOS:  cpu time    0.0016: real time    0.0016
    CHARGE:  cpu time    0.0558: real time    0.0558
    MIXING:  cpu time    0.0017: real time    0.0017
    --------------------------------------------
      LOOP:  cpu time    2.4957: real time    2.4983

 eigenvalue-minimisations  :  2136
 total energy-change (2. order) : 0.1029589E+01  (-0.1231171E+02)
 number of electron     109.0000411 magnetization 
 augmentation part       45.0001572 magnetization 

 Broyden mixing:
  rms(total) = 0.30647E+01    rms(broyden)= 0.30631E+01
  rms(prec ) = 0.55664E+01
  weight for this iteration     100.00

 eigenvalues of (default mixing * dielectric matrix)
  average eigenvalue GAMMA=   0.5132
  1.1485  0.2386  0.1525

 Free energy of the ion-electron system (eV)
  ---------------------------------------------------
  alpha Z        PSCENC =       552.45266882
  Ewald energy   TEWEN  =     -5073.89273949
  -Hartree energ DENC   =      -842.73758727
  -exchange      EXHF   =         0.00000000
  -V(xc)+E(xc)   XCENC  =      -769.91112338
  PAW double counting   =      7478.44235984    -6670.89458852
  entropy T*S    EENTRO =        -0.11432680
  eigenvalues    EBANDS =       461.46685189
  atomic energy  EATOM  =      4687.48422623
  Solvation  Ediel_sol  =         0.00000000
  ---------------------------------------------------
  free energy    TOTEN  =      -177.70425867 eV

  energy without entropy =     -177.58993188  energy(sigma->0) =     -177.64709527


--------------------------------------------------------------------------------------------------------




--------------------------------------- Iteration      1(   9)  ---------------------------------------


    POTLOK:  cpu time    0.0280: real time    0.0280
    SETDIJ:  cpu time    0.0167: real time    0.0168
     EDDAV:  cpu time    2.3677: real time    2.3702
       DOS:  cpu time    0.0015: real time    0.0014
    CHARGE:  cpu time    0.0551: real time    0.0552
    MIXING:  cpu time    0.0017: real time    0.0017
    --------------------------------------------
      LOOP:  cpu time    2.4708: real time    2.4733

 eigenvalue-minimisations  :  2160
 total energy-change (2. order) : 0.1134010E+02  (-0.5120074E+01)
 number of electron     109.0000313 magnetization 
 augmentation part       43.6708926 magnetization 

 Broyden mixing:
  rms(total) = 0.10301E+01    rms(broyden)= 0.10282E+01
  rms(prec ) = 0.15650E+01
  weight for this iteration     100.00

 eigenvalues of (default mixing * dielectric matrix)
  average eigenvalue GAMMA=   0.4716
  1.1923  0.2635  0.2635  0.1670

 Free energy of the ion-electron system (eV)
  ---------------------------------------------------
  alpha Z        PSCENC =       552.45266882
  Ewald energy   TEWEN  =     -5073.89273949
  -Hartree energ DENC   =      -858.33961499
  -exchange      EXHF   =         0.00000000
  -V(xc)+E(xc)   XCENC  =      -769.06772146
  PAW double counting   =      7645.84973225    -6842.16202361
  entropy T*S    EENTRO =        -0.11130338
  eigenvalues    EBANDS =       491.42261240
  atomic energy  EATOM  =      4687.48422623
  Solvation  Ediel_sol  =         0.00000000
  ---------------------------------------------------
  free energy    TOTEN  =      -166.36416324 eV

  energy without entropy =     -166.25285986  energy(sigma->0) =     -166.30851155


--------------------------------------------------------------------------------------------------------




--------------------------------------- Iteration      1(  10)  ---------------------------------------


    POTLOK:  cpu time    0.0259: real time    0.0259
    SETDIJ:  cpu time    0.0162: real time    0.0162
     EDDAV:  cpu time    2.1558: real time    2.1580
       DOS:  cpu time    0.0015: real time    0.0015
    CHARGE:  cpu time    0.0560: real time    0.0561
    MIXING:  cpu time    0.0018: real time    0.0018
    --------------------------------------------
      LOOP:  cpu time    2.2571: real time    2.2595

 eigenvalue-minimisations  :  1928
 total energy-change (2. order) : 0.2244741E+00  (-0.8520521E+00)
 number of electron     109.0000318 magnetization 
 augmentation part       43.6454469 magnetization 

 Broyden mixing:
  rms(total) = 0.89394E+00    rms(broyden)= 0.89289E+00
  rms(prec ) = 0.13900E+01
  weight for this iteration     100.00

 eigenvalues of (default mixing * dielectric matrix)
  average eigenvalue GAMMA=   0.4469
  1.2529  0.3329  0.3329  0.1579  0.1579

 Free energy of the ion-electron system (eV)
  ---------------------------------------------------
  alpha Z        PSCENC =       552.45266882
  Ewald energy   TEWEN  =     -5073.89273949
  -Hartree energ DENC   =      -854.26100539
  -exchange      EXHF   =         0.00000000
  -V(xc)+E(xc)   XCENC  =      -768.98616105
  PAW double counting   =      7741.21802491    -6937.85809540
  entropy T*S    EENTRO =        -0.12025583
  eigenvalues    EBANDS =       487.82364803
  atomic energy  EATOM  =      4687.48422623
  Solvation  Ediel_sol  =         0.00000000
  ---------------------------------------------------
  free energy    TOTEN  =      -166.13968916 eV

  energy without entropy =     -166.01943333  energy(sigma->0) =     -166.07956125


--------------------------------------------------------------------------------------------------------




--------------------------------------- Iteration      1(  11)  ---------------------------------------


    POTLOK:  cpu time    0.0257: real time    0.0257
    SETDIJ:  cpu time    0.0165: real time    0.0165
     EDDAV:  cpu time    2.2475: real time    2.2499
       DOS:  cpu time    0.0015: real time    0.0015
    CHARGE:  cpu time    0.0562: real time    0.0563
    MIXING:  cpu time    0.0019: real time    0.0019
    --------------------------------------------
      LOOP:  cpu time    2.3493: real time    2.3518

 eigenvalue-minimisations  :  1968
 total energy-change (2. order) : 0.3305223E+00  (-0.2994614E+00)
 number of electron     109.0000312 magnetization 
 augmentation part       43.7849350 magnetization 

 Broyden mixing:
  rms(total) = 0.71512E+00    rms(broyden)= 0.71372E+00
  rms(prec ) = 0.10390E+01
  weight for this iteration     100.00

 eigenvalues of (default mixing * dielectric matrix)
  average eigenvalue GAMMA=   0.4384
  1.2682  0.4253  0.4253  0.2132  0.1700  0.1282

 Free energy of the ion-electron system (eV)
  ---------------------------------------------------
  alpha Z        PSCENC =       552.45266882
  Ewald energy   TEWEN  =     -5073.89273949
  -Hartree energ DENC   =      -850.99986711
  -exchange      EXHF   =         0.00000000
  -V(xc)+E(xc)   XCENC  =      -768.83961039
  PAW double counting   =      7869.61277285    -7066.72040321
  entropy T*S    EENTRO =        -0.11629188
  eigenvalues    EBANDS =       485.21007733
  atomic energy  EATOM  =      4687.48422623
  Solvation  Ediel_sol  =         0.00000000
  ---------------------------------------------------
  free energy    TOTEN  =      -165.80916686 eV

  energy without entropy =     -165.69287498  energy(sigma->0) =     -165.75102092


--------------------------------------------------------------------------------------------------------




--------------------------------------- Iteration      1(  12)  ---------------------------------------


    POTLOK:  cpu time    0.0280: real time    0.0281
    SETDIJ:  cpu time    0.0168: real time    0.0169
     EDDAV:  cpu time    2.1398: real time    2.1418
       DOS:  cpu time    0.0015: real time    0.0015
    CHARGE:  cpu time    0.0532: real time    0.0532
    MIXING:  cpu time    0.0021: real time    0.0021
    --------------------------------------------
      LOOP:  cpu time    2.2414: real time    2.2436

 eigenvalue-minimisations  :  1984
 total energy-change (2. order) : 0.1744215E+00  (-0.1661386E+00)
 number of electron     109.0000308 magnetization 
 augmentation part       43.9262790 magnetization 

 Broyden mixing:
  rms(total) = 0.50702E+00    rms(broyden)= 0.50629E+00
  rms(prec ) = 0.72425E+00
  weight for this iteration     100.00

 eigenvalues of (default mixing * dielectric matrix)
  average eigenvalue GAMMA=   0.5541
  1.1157  1.0161  1.0161  0.2379  0.2015  0.1693  0.1224

 Free energy of the ion-electron system (eV)
  ---------------------------------------------------
  alpha Z        PSCENC =       552.45266882
  Ewald energy   TEWEN  =     -5073.89273949
  -Hartree energ DENC   =      -848.87486452
  -exchange      EXHF   =         0.00000000
  -V(xc)+E(xc)   XCENC  =      -768.77170197
  PAW double counting   =      7938.84891314    -7136.21312191
  entropy T*S    EENTRO =        -0.12072717
  eigenvalues    EBANDS =       483.45260151
  atomic energy  EATOM  =      4687.48422623
  Solvation  Ediel_sol  =         0.00000000
  ---------------------------------------------------
  free energy    TOTEN  =      -165.63474537 eV

  energy without entropy =     -165.51401819  energy(sigma->0) =     -165.57438178


--------------------------------------------------------------------------------------------------------




--------------------------------------- Iteration      1(  13)  ---------------------------------------


    POTLOK:  cpu time    0.0260: real time    0.0260
    SETDIJ:  cpu time    0.0167: real time    0.0167
     EDDAV:  cpu time    2.2925: real time    2.2954
       DOS:  cpu time    0.0014: real time    0.0014
    CHARGE:  cpu time    0.0534: real time    0.0535
    MIXING:  cpu time    0.0019: real time    0.0019
    --------------------------------------------
      LOOP:  cpu time    2.3920: real time    2.3950

 eigenvalue-minimisations  :  2160
 total energy-change (2. order) :-0.2494448E-01  (-0.1331232E+00)
 number of electron     109.0000327 magnetization 
 augmentation part       44.0878174 magnetization 

 Broyden mixing:
  rms(total) = 0.58802E+00    rms(broyden)= 0.58787E+00
  rms(prec ) = 0.95829E+00
  weight for this iteration     100.00

 eigenvalues of (default mixing * dielectric matrix)
  average eigenvalue GAMMA=   0.5740
  1.3604  1.3604  0.9567  0.2303  0.2303  0.1732  0.1596  0.1208

 Free energy of the ion-electron system (eV)
  ---------------------------------------------------
  alpha Z        PSCENC =       552.45266882
  Ewald energy   TEWEN  =     -5073.89273949
  -Hartree energ DENC   =      -846.55114767
  -exchange      EXHF   =         0.00000000
  -V(xc)+E(xc)   XCENC  =      -768.60569040
  PAW double counting   =      8055.56312159    -7253.51025111
  entropy T*S    EENTRO =        -0.12603314
  eigenvalues    EBANDS =       481.52615533
  atomic energy  EATOM  =      4687.48422623
  Solvation  Ediel_sol  =         0.00000000
  ---------------------------------------------------
  free energy    TOTEN  =      -165.65968985 eV

  energy without entropy =     -165.53365671  energy(sigma->0) =     -165.59667328


--------------------------------------------------------------------------------------------------------




--------------------------------------- Iteration      1(  14)  ---------------------------------------


    POTLOK:  cpu time    0.0256: real time    0.0256
    SETDIJ:  cpu time    0.0160: real time    0.0160
     EDDAV:  cpu time    2.2603: real time    2.2627
       DOS:  cpu time    0.0015: real time    0.0015
    CHARGE:  cpu time    0.0561: real time    0.0562
    MIXING:  cpu time    0.0024: real time    0.0024
    --------------------------------------------
      LOOP:  cpu time    2.3620: real time    2.3645

 eigenvalue-minimisations  :  2144
 total energy-change (2. order) : 0.1998423E+00  (-0.1744689E+00)
 number of electron     109.0000305 magnetization 
 augmentation part       44.3049090 magnetization 

 Broyden mixing:
  rms(total) = 0.35782E+00    rms(broyden)= 0.35750E+00
  rms(prec ) = 0.56221E+00
  weight for this iteration     100.00

 eigenvalues of (default mixing * dielectric matrix)
  average eigenvalue GAMMA=   0.6147
  1.6815  1.6815  0.8553  0.4342  0.2494  0.2115  0.1625  0.1211  0.1356

 Free energy of the ion-electron system (eV)
  ---------------------------------------------------
  alpha Z        PSCENC =       552.45266882
  Ewald energy   TEWEN  =     -5073.89273949
  -Hartree energ DENC   =      -842.90659885
  -exchange      EXHF   =         0.00000000
  -V(xc)+E(xc)   XCENC  =      -768.50962638
  PAW double counting   =      8179.10548870    -7377.55752141
  entropy T*S    EENTRO =        -0.12264209
  eigenvalues    EBANDS =       478.48689694
  atomic energy  EATOM  =      4687.48422623
  Solvation  Ediel_sol  =         0.00000000
  ---------------------------------------------------
  free energy    TOTEN  =      -165.45984753 eV

  energy without entropy =     -165.33720544  energy(sigma->0) =     -165.39852649


--------------------------------------------------------------------------------------------------------




--------------------------------------- Iteration      1(  15)  ---------------------------------------


    POTLOK:  cpu time    0.0273: real time    0.0273
    SETDIJ:  cpu time    0.0162: real time    0.0163
     EDDAV:  cpu time    2.2281: real time    2.2304
       DOS:  cpu time    0.0014: real time    0.0014
    CHARGE:  cpu time    0.0578: real time    0.0579
    MIXING:  cpu time    0.0023: real time    0.0023
    --------------------------------------------
      LOOP:  cpu time    2.3332: real time    2.3357

 eigenvalue-minimisations  :  2128
 total energy-change (2. order) : 0.5487363E-01  (-0.6386636E-01)
 number of electron     109.0000314 magnetization 
 augmentation part       44.3966497 magnetization 

 Broyden mixing:
  rms(total) = 0.21862E+00    rms(broyden)= 0.21854E+00
  rms(prec ) = 0.33260E+00
  weight for this iteration     100.00

 eigenvalues of (default mixing * dielectric matrix)
  average eigenvalue GAMMA=   0.6660
  2.0206  2.0206  0.7705  0.7705  0.2376  0.2376  0.1721  0.1721  0.1202  0.1376

 Free energy of the ion-electron system (eV)
  ---------------------------------------------------
  alpha Z        PSCENC =       552.45266882
  Ewald energy   TEWEN  =     -5073.89273949
  -Hartree energ DENC   =      -842.08996658
  -exchange      EXHF   =         0.00000000
  -V(xc)+E(xc)   XCENC  =      -768.40473528
  PAW double counting   =      8242.22375100    -7441.07054730
  entropy T*S    EENTRO =        -0.12587206
  eigenvalues    EBANDS =       478.01824076
  atomic energy  EATOM  =      4687.48422623
  Solvation  Ediel_sol  =         0.00000000
  ---------------------------------------------------
  free energy    TOTEN  =      -165.40497390 eV

  energy without entropy =     -165.27910184  energy(sigma->0) =     -165.34203787


--------------------------------------------------------------------------------------------------------




--------------------------------------- Iteration      1(  16)  ---------------------------------------


    POTLOK:  cpu time    0.0279: real time    0.0280
    SETDIJ:  cpu time    0.0162: real time    0.0162
     EDDAV:  cpu time    2.3558: real time    2.3584
       DOS:  cpu time    0.0015: real time    0.0015
    CHARGE:  cpu time    0.0549: real time    0.0550
    MIXING:  cpu time    0.0021: real time    0.0021
    --------------------------------------------
      LOOP:  cpu time    2.4584: real time    2.4611

 eigenvalue-minimisations  :  2136
 total energy-change (2. order) : 0.2357449E-01  (-0.2519213E-01)
 number of electron     109.0000310 magnetization 
 augmentation part       44.4064798 magnetization 

 Broyden mixing:
  rms(total) = 0.11147E+00    rms(broyden)= 0.11140E+00
  rms(prec ) = 0.18525E+00
  weight for this iteration     100.00

 eigenvalues of (default mixing * dielectric matrix)
  average eigenvalue GAMMA=   0.6464
  2.0494  2.0494  0.7623  0.7623  0.4054  0.2563  0.2011  0.2011  0.1645  0.1208
  0.1379

 Free energy of the ion-electron system (eV)
  ---------------------------------------------------
  alpha Z        PSCENC =       552.45266882
  Ewald energy   TEWEN  =     -5073.89273949
  -Hartree energ DENC   =      -842.29932994
  -exchange      EXHF   =         0.00000000
  -V(xc)+E(xc)   XCENC  =      -768.25544155
  PAW double counting   =      8312.91624309    -7512.48578499
  entropy T*S    EENTRO =        -0.12687800
  eigenvalues    EBANDS =       478.82563642
  atomic energy  EATOM  =      4687.48422623
  Solvation  Ediel_sol  =         0.00000000
  ---------------------------------------------------
  free energy    TOTEN  =      -165.38139942 eV

  energy without entropy =     -165.25452142  energy(sigma->0) =     -165.31796042


--------------------------------------------------------------------------------------------------------




--------------------------------------- Iteration      1(  17)  ---------------------------------------


    POTLOK:  cpu time    0.0259: real time    0.0259
    SETDIJ:  cpu time    0.0165: real time    0.0165
     EDDAV:  cpu time    2.0317: real time    2.0338
       DOS:  cpu time    0.0014: real time    0.0015
    CHARGE:  cpu time    0.0549: real time    0.0550
    MIXING:  cpu time    0.0023: real time    0.0023
    --------------------------------------------
      LOOP:  cpu time    2.1328: real time    2.1350

 eigenvalue-minimisations  :  1848
 total energy-change (2. order) : 0.5167030E-02  (-0.1052502E-01)
 number of electron     109.0000310 magnetization 
 augmentation part       44.4091877 magnetization 

 Broyden mixing:
  rms(total) = 0.84032E-01    rms(broyden)= 0.84012E-01
  rms(prec ) = 0.13112E+00
  weight for this iteration     100.00

 eigenvalues of (default mixing * dielectric matrix)
  average eigenvalue GAMMA=   0.6965
  2.0823  2.0823  1.0739  1.0739  0.7740  0.2451  0.2208  0.2063  0.1735  0.1676
  0.1206  0.1374

 Free energy of the ion-electron system (eV)
  ---------------------------------------------------
  alpha Z        PSCENC =       552.45266882
  Ewald energy   TEWEN  =     -5073.89273949
  -Hartree energ DENC   =      -842.25018296
  -exchange      EXHF   =         0.00000000
  -V(xc)+E(xc)   XCENC  =      -768.24846518
  PAW double counting   =      8321.23681814    -7520.92785657
  entropy T*S    EENTRO =        -0.12710671
  eigenvalues    EBANDS =       478.89640534
  atomic energy  EATOM  =      4687.48422623
  Solvation  Ediel_sol  =         0.00000000
  ---------------------------------------------------
  free energy    TOTEN  =      -165.37623239 eV

  energy without entropy =     -165.24912568  energy(sigma->0) =     -165.31267903


--------------------------------------------------------------------------------------------------------




--------------------------------------- Iteration      1(  18)  ---------------------------------------


    POTLOK:  cpu time    0.0267: real time    0.0268
    SETDIJ:  cpu time    0.0164: real time    0.0164
     EDDAV:  cpu time    2.4476: real time    2.4503
       DOS:  cpu time    0.0015: real time    0.0015
    CHARGE:  cpu time    0.0533: real time    0.0534
    MIXING:  cpu time    0.0024: real time    0.0024
    --------------------------------------------
      LOOP:  cpu time    2.5479: real time    2.5506

 eigenvalue-minimisations  :  2160
 total energy-change (2. order) :-0.7442856E-03  (-0.5677546E-02)
 number of electron     109.0000313 magnetization 
 augmentation part       44.4132772 magnetization 

 Broyden mixing:
  rms(total) = 0.76513E-01    rms(broyden)= 0.76436E-01
  rms(prec ) = 0.13200E+00
  weight for this iteration     100.00

 eigenvalues of (default mixing * dielectric matrix)
  average eigenvalue GAMMA=   0.6736
  2.1457  1.9610  1.2760  1.0549  0.7913  0.2509  0.2509  0.2246  0.1206  0.1378
  0.1980  0.1654  0.1800

 Free energy of the ion-electron system (eV)
  ---------------------------------------------------
  alpha Z        PSCENC =       552.45266882
  Ewald energy   TEWEN  =     -5073.89273949
  -Hartree energ DENC   =      -842.08432745
  -exchange      EXHF   =         0.00000000
  -V(xc)+E(xc)   XCENC  =      -768.25325962
  PAW double counting   =      8331.66970478    -7531.61728224
  entropy T*S    EENTRO =        -0.12681367
  eigenvalues    EBANDS =       478.99084596
  atomic energy  EATOM  =      4687.48422623
  Solvation  Ediel_sol  =         0.00000000
  ---------------------------------------------------
  free energy    TOTEN  =      -165.37697667 eV

  energy without entropy =     -165.25016300  energy(sigma->0) =     -165.31356984


--------------------------------------------------------------------------------------------------------




--------------------------------------- Iteration      1(  19)  ---------------------------------------


    POTLOK:  cpu time    0.0269: real time    0.0269
    SETDIJ:  cpu time    0.0162: real time    0.0162
     EDDAV:  cpu time    2.3938: real time    2.3964
       DOS:  cpu time    0.0015: real time    0.0015
    CHARGE:  cpu time    0.0554: real time    0.0555
    MIXING:  cpu time    0.0027: real time    0.0027
    --------------------------------------------
      LOOP:  cpu time    2.4964: real time    2.4992

 eigenvalue-minimisations  :  2176
 total energy-change (2. order) : 0.4652532E-02  (-0.3593220E-02)
 number of electron     109.0000311 magnetization 
 augmentation part       44.3983244 magnetization 

 Broyden mixing:
  rms(total) = 0.33188E-01    rms(broyden)= 0.33145E-01
  rms(prec ) = 0.54325E-01
  weight for this iteration     100.00

 eigenvalues of (default mixing * dielectric matrix)
  average eigenvalue GAMMA=   0.7030
  2.3250  1.7588  1.7588  0.9512  0.8279  0.7626  0.2436  0.2335  0.1206  0.2050
  0.1378  0.1859  0.1635  0.1672

 Free energy of the ion-electron system (eV)
  ---------------------------------------------------
  alpha Z        PSCENC =       552.45266882
  Ewald energy   TEWEN  =     -5073.89273949
  -Hartree energ DENC   =      -842.24697736
  -exchange      EXHF   =         0.00000000
  -V(xc)+E(xc)   XCENC  =      -768.23390719
  PAW double counting   =      8338.05691340    -7538.14999355
  entropy T*S    EENTRO =        -0.12680427
  eigenvalues    EBANDS =       479.28428928
  atomic energy  EATOM  =      4687.48422623
  Solvation  Ediel_sol  =         0.00000000
  ---------------------------------------------------
  free energy    TOTEN  =      -165.37232414 eV

  energy without entropy =     -165.24551987  energy(sigma->0) =     -165.30892201


--------------------------------------------------------------------------------------------------------




--------------------------------------- Iteration      1(  20)  ---------------------------------------


    POTLOK:  cpu time    0.0264: real time    0.0264
    SETDIJ:  cpu time    0.0164: real time    0.0164
     EDDAV:  cpu time    1.9742: real time    1.9762
       DOS:  cpu time    0.0015: real time    0.0015
    CHARGE:  cpu time    0.0535: real time    0.0536
    MIXING:  cpu time    0.0026: real time    0.0026
    --------------------------------------------
      LOOP:  cpu time    2.0745: real time    2.0766

 eigenvalue-minimisations  :  1760
 total energy-change (2. order) : 0.2194029E-03  (-0.7952289E-03)
 number of electron     109.0000311 magnetization 
 augmentation part       44.3939396 magnetization 

 Broyden mixing:
  rms(total) = 0.24728E-01    rms(broyden)= 0.24722E-01
  rms(prec ) = 0.38686E-01
  weight for this iteration     100.00

 eigenvalues of (default mixing * dielectric matrix)
  average eigenvalue GAMMA=   0.6782
  2.4518  1.7055  1.7055  1.0576  0.7787  0.7787  0.2501  0.2345  0.2345  0.1206
  0.2034  0.1376  0.1832  0.1656  0.1656

 Free energy of the ion-electron system (eV)
  ---------------------------------------------------
  alpha Z        PSCENC =       552.45266882
  Ewald energy   TEWEN  =     -5073.89273949
  -Hartree energ DENC   =      -842.20897462
  -exchange      EXHF   =         0.00000000
  -V(xc)+E(xc)   XCENC  =      -768.23571756
  PAW double counting   =      8339.14097470    -7539.28474797
  entropy T*S    EENTRO =        -0.12671782
  eigenvalues    EBANDS =       479.29892297
  atomic energy  EATOM  =      4687.48422623
  Solvation  Ediel_sol  =         0.00000000
  ---------------------------------------------------
  free energy    TOTEN  =      -165.37210474 eV

  energy without entropy =     -165.24538692  energy(sigma->0) =     -165.30874583


--------------------------------------------------------------------------------------------------------




--------------------------------------- Iteration      1(  21)  ---------------------------------------


    POTLOK:  cpu time    0.0264: real time    0.0265
    SETDIJ:  cpu time    0.0165: real time    0.0165
     EDDAV:  cpu time    2.3379: real time    2.3406
       DOS:  cpu time    0.0015: real time    0.0015
    CHARGE:  cpu time    0.0558: real time    0.0560
    MIXING:  cpu time    0.0034: real time    0.0034
    --------------------------------------------
      LOOP:  cpu time    2.4415: real time    2.4444

 eigenvalue-minimisations  :  2144
 total energy-change (2. order) : 0.4321781E-03  (-0.3815111E-03)
 number of electron     109.0000310 magnetization 
 augmentation part       44.3928961 magnetization 

 Broyden mixing:
  rms(total) = 0.10255E-01    rms(broyden)= 0.10242E-01
  rms(prec ) = 0.12807E-01
  weight for this iteration     100.00

 eigenvalues of (default mixing * dielectric matrix)
  average eigenvalue GAMMA=   0.7304
  2.4536  1.9532  1.9532  1.1150  0.8949  0.8949  0.7475  0.2457  0.1206  0.2291
  0.2254  0.1377  0.1990  0.1856  0.1670  0.1638

 Free energy of the ion-electron system (eV)
  ---------------------------------------------------
  alpha Z        PSCENC =       552.45266882
  Ewald energy   TEWEN  =     -5073.89273949
  -Hartree energ DENC   =      -842.22271317
  -exchange      EXHF   =         0.00000000
  -V(xc)+E(xc)   XCENC  =      -768.22802597
  PAW double counting   =      8342.50854502    -7542.68533132
  entropy T*S    EENTRO =        -0.12679881
  eigenvalues    EBANDS =       479.33849614
  atomic energy  EATOM  =      4687.48422623
  Solvation  Ediel_sol  =         0.00000000
  ---------------------------------------------------
  free energy    TOTEN  =      -165.37167256 eV

  energy without entropy =     -165.24487375  energy(sigma->0) =     -165.30827315


--------------------------------------------------------------------------------------------------------




--------------------------------------- Iteration      1(  22)  ---------------------------------------


    POTLOK:  cpu time    0.0280: real time    0.0281
    SETDIJ:  cpu time    0.0167: real time    0.0168
     EDDAV:  cpu time    2.3596: real time    2.3626
       DOS:  cpu time    0.0016: real time    0.0016
    CHARGE:  cpu time    0.0537: real time    0.0538
    MIXING:  cpu time    0.0031: real time    0.0031
    --------------------------------------------
      LOOP:  cpu time    2.4627: real time    2.4658

 eigenvalue-minimisations  :  2176
 total energy-change (2. order) :-0.3777078E-04  (-0.8983771E-04)
 number of electron     109.0000311 magnetization 
 augmentation part       44.3924706 magnetization 

 Broyden mixing:
  rms(total) = 0.10254E-01    rms(broyden)= 0.10251E-01
  rms(prec ) = 0.16256E-01
  weight for this iteration     100.00

 eigenvalues of (default mixing * dielectric matrix)
  average eigenvalue GAMMA=   0.7184
  2.5019  2.0198  2.0198  1.1535  0.9272  0.9272  0.7528  0.1206  0.1377  0.2469
  0.2469  0.2224  0.2224  0.2024  0.1815  0.1669  0.1635

 Free energy of the ion-electron system (eV)
  ---------------------------------------------------
  alpha Z        PSCENC =       552.45266882
  Ewald energy   TEWEN  =     -5073.89273949
  -Hartree energ DENC   =      -842.18836420
  -exchange      EXHF   =         0.00000000
  -V(xc)+E(xc)   XCENC  =      -768.23254991
  PAW double counting   =      8342.56282855    -7542.75151064
  entropy T*S    EENTRO =        -0.12671944
  eigenvalues    EBANDS =       479.32044975
  atomic energy  EATOM  =      4687.48422623
  Solvation  Ediel_sol  =         0.00000000
  ---------------------------------------------------
  free energy    TOTEN  =      -165.37171033 eV

  energy without entropy =     -165.24499089  energy(sigma->0) =     -165.30835061


--------------------------------------------------------------------------------------------------------




--------------------------------------- Iteration      1(  23)  ---------------------------------------


    POTLOK:  cpu time    0.0270: real time    0.0270
    SETDIJ:  cpu time    0.0162: real time    0.0163
     EDDAV:  cpu time    2.0844: real time    2.0869
       DOS:  cpu time    0.0015: real time    0.0015
    CHARGE:  cpu time    0.0557: real time    0.0557
    MIXING:  cpu time    0.0030: real time    0.0030
    --------------------------------------------
      LOOP:  cpu time    2.1879: real time    2.1905

 eigenvalue-minimisations  :  1832
 total energy-change (2. order) : 0.7062444E-04  (-0.4866907E-04)
 number of electron     109.0000310 magnetization 
 augmentation part       44.3908125 magnetization 

 Broyden mixing:
  rms(total) = 0.44776E-02    rms(broyden)= 0.44757E-02
  rms(prec ) = 0.70184E-02
  weight for this iteration     100.00

 eigenvalues of (default mixing * dielectric matrix)
  average eigenvalue GAMMA=   0.7351
  2.5011  2.0309  2.0309  1.2389  1.0013  1.0013  0.8019  0.7479  0.1206  0.2469
  0.1377  0.2294  0.2294  0.1638  0.1670  0.2050  0.1845  0.1925

 Free energy of the ion-electron system (eV)
  ---------------------------------------------------
  alpha Z        PSCENC =       552.45266882
  Ewald energy   TEWEN  =     -5073.89273949
  -Hartree energ DENC   =      -842.20043182
  -exchange      EXHF   =         0.00000000
  -V(xc)+E(xc)   XCENC  =      -768.23100133
  PAW double counting   =      8343.42686919    -7543.63098071
  entropy T*S    EENTRO =        -0.12675068
  eigenvalues    EBANDS =       479.34650008
  atomic energy  EATOM  =      4687.48422623
  Solvation  Ediel_sol  =         0.00000000
  ---------------------------------------------------
  free energy    TOTEN  =      -165.37163971 eV

  energy without entropy =     -165.24488903  energy(sigma->0) =     -165.30826437


--------------------------------------------------------------------------------------------------------




--------------------------------------- Iteration      1(  24)  ---------------------------------------


    POTLOK:  cpu time    0.0270: real time    0.0270
    SETDIJ:  cpu time    0.0167: real time    0.0167
     EDDAV:  cpu time    1.8204: real time    1.8225
       DOS:  cpu time    0.0015: real time    0.0015
    CHARGE:  cpu time    0.0540: real time    0.0540
    MIXING:  cpu time    0.0033: real time    0.0033
    --------------------------------------------
      LOOP:  cpu time    1.9228: real time    1.9249

 eigenvalue-minimisations  :  1584
 total energy-change (2. order) : 0.8037402E-05  (-0.1185175E-04)
 number of electron     109.0000310 magnetization 
 augmentation part       44.3888057 magnetization 

 Broyden mixing:
  rms(total) = 0.22932E-02    rms(broyden)= 0.22921E-02
  rms(prec ) = 0.35606E-02
  weight for this iteration     100.00

 eigenvalues of (default mixing * dielectric matrix)
  average eigenvalue GAMMA=   0.7182
  2.4904  2.0472  2.0472  1.2713  1.0112  1.0112  0.8546  0.7465  0.1206  0.2832
  0.1377  0.2415  0.2415  0.1637  0.1669  0.2213  0.2102  0.1852  0.1939

 Free energy of the ion-electron system (eV)
  ---------------------------------------------------
  alpha Z        PSCENC =       552.45266882
  Ewald energy   TEWEN  =     -5073.89273949
  -Hartree energ DENC   =      -842.22457429
  -exchange      EXHF   =         0.00000000
  -V(xc)+E(xc)   XCENC  =      -768.23053039
  PAW double counting   =      8343.57577880    -7543.78694078
  entropy T*S    EENTRO =        -0.12674366
  eigenvalues    EBANDS =       479.37722309
  atomic energy  EATOM  =      4687.48422623
  Solvation  Ediel_sol  =         0.00000000
  ---------------------------------------------------
  free energy    TOTEN  =      -165.37163167 eV

  energy without entropy =     -165.24488801  energy(sigma->0) =     -165.30825984


--------------------------------------------------------------------------------------------------------




--------------------------------------- Iteration      1(  25)  ---------------------------------------


    POTLOK:  cpu time    0.0264: real time    0.0264
    SETDIJ:  cpu time    0.0166: real time    0.0166
     EDDAV:  cpu time    1.0722: real time    1.0734
       DOS:  cpu time    0.0014: real time    0.0014
    --------------------------------------------
      LOOP:  cpu time    1.1165: real time    1.1177

 eigenvalue-minimisations  :   792
 total energy-change (2. order) : 0.6219618E-05  (-0.1873652E-05)
 number of electron     109.0000310 magnetization 
 augmentation part       44.3888057 magnetization 

 Free energy of the ion-electron system (eV)
  ---------------------------------------------------
  alpha Z        PSCENC =       552.45266882
  Ewald energy   TEWEN  =     -5073.89273949
  -Hartree energ DENC   =      -842.23222805
  -exchange      EXHF   =         0.00000000
  -V(xc)+E(xc)   XCENC  =      -768.23047472
  PAW double counting   =      8343.54560976    -7543.75782680
  entropy T*S    EENTRO =        -0.12672786
  eigenvalues    EBANDS =       479.38586667
  atomic energy  EATOM  =      4687.48422623
  Solvation  Ediel_sol  =         0.00000000
  ---------------------------------------------------
  free energy    TOTEN  =      -165.37162545 eV

  energy without entropy =     -165.24489759  energy(sigma->0) =     -165.30826152


--------------------------------------------------------------------------------------------------------




 average (electrostatic) potential at core
  the test charge radii are     1.2064  1.0103
  (the norm of the test charge is              1.0000)
       1 -38.9889       2 -38.9477       3 -39.3094       4 -38.9007       5 -38.8614
       6 -39.1588       7 -39.0471       8 -38.8560       9 -38.9775      10 -39.1480
      11 -38.8888      12 -38.9221      13 -39.1742      14 -39.1034      15 -38.9659
      16 -39.1491      17 -38.9487      18 -42.6816      19 -42.8210      20 -42.9349
 
 
 
 E-fermi :   6.6131     XC(G=0): -12.5070     alpha+bet :-15.2488


 k-point     1 :       0.0000    0.0000    0.0000
  band No.  band energies     occupation 
      1      -0.4105      2.00000
      2       1.5730      2.00000
      3       1.7679      2.00000
      4       2.1957      2.00000
      5       2.3495      2.00000
      6       2.6392      2.00000
      7       2.9332      2.00000
      8       2.9954      2.00000
      9       3.1072      2.00000
     10       3.1438      2.00000
     11       3.1870      2.00000
     12       3.3016      2.00000
     13       3.3107      2.00000
     14       3.4201      2.00000
     15       3.4636      2.00000
     16       3.5467      2.00000
     17       3.6187      2.00000
     18       3.6685      2.00000
     19       3.8531      2.00000
     20       3.9614      2.00000
     21       4.0150      2.00000
     22       4.0523      2.00000
     23       4.1039      2.00000
     24       4.2498      2.00000
     25       4.2942      2.00000
     26       4.3197      2.00000
     27       4.3767      2.00000
     28       4.4211      2.00000
     29       4.5286      2.00000
     30       4.5483      2.00000
     31       4.7826      2.00000
     32       4.8577      2.00000
     33       4.8872      2.00000
     34       4.9303      2.00000
     35       4.9533      2.00000
     36       5.0137      2.00000
     37       5.1057      2.00000
     38       5.1890      2.00000
     39       5.2554      2.00000
     40       5.2816      2.00000
     41       5.3898      2.00000
     42       5.4190      2.00000
     43       5.4406      2.00000
     44       5.5832      2.00000
     45       5.6973      2.00000
     46       5.7323      2.00000
     47       5.8467      2.00000
     48       5.9696      2.00000
     49       5.9721      2.00000
     50       6.1922      2.00000
     51       6.2187      2.00000
     52       6.3652      1.99954
     53       6.3824      1.99890
     54       6.4218      1.99317
     55       6.5486      1.63793
     56       6.6493      0.60813
     57       6.7131      0.15734
     58       6.8187      0.00363
     59       6.8598      0.00048
     60       6.9183      0.00002
     61       7.0885      0.00000
     62       7.1739      0.00000
     63       7.2294      0.00000
     64       7.3498      0.00000
     65       7.3695      0.00000
     66       7.4555      0.00000
     67       7.5308      0.00000
     68       7.6335      0.00000

 k-point     2 :       0.5000    0.0000    0.0000
  band No.  band energies     occupation 
      1       0.2499      2.00000
      2       0.5165      2.00000
      3       1.9238      2.00000
      4       2.1036      2.00000
      5       2.4680      2.00000
      6       2.4827      2.00000
      7       2.7077      2.00000
      8       2.7493      2.00000
      9       2.9808      2.00000
     10       3.1801      2.00000
     11       3.2847      2.00000
     12       3.3846      2.00000
     13       3.4046      2.00000
     14       3.4937      2.00000
     15       3.5769      2.00000
     16       3.6420      2.00000
     17       3.7687      2.00000
     18       3.8081      2.00000
     19       3.8438      2.00000
     20       3.9372      2.00000
     21       4.0672      2.00000
     22       4.1019      2.00000
     23       4.1642      2.00000
     24       4.2395      2.00000
     25       4.2780      2.00000
     26       4.3448      2.00000
     27       4.4303      2.00000
     28       4.4369      2.00000
     29       4.4928      2.00000
     30       4.5830      2.00000
     31       4.6335      2.00000
     32       4.7585      2.00000
     33       4.8063      2.00000
     34       4.8841      2.00000
     35       4.9586      2.00000
     36       5.0069      2.00000
     37       5.1172      2.00000
     38       5.1593      2.00000
     39       5.2338      2.00000
     40       5.3710      2.00000
     41       5.3886      2.00000
     42       5.4616      2.00000
     43       5.5197      2.00000
     44       5.5629      2.00000
     45       5.6841      2.00000
     46       5.7220      2.00000
     47       5.9355      2.00000
     48       5.9606      2.00000
     49       6.0579      2.00000
     50       6.1406      2.00000
     51       6.1798      2.00000
     52       6.3353      1.99991
     53       6.3827      1.99888
     54       6.4492      1.97952
     55       6.4855      1.92885
     56       6.6203      0.91811
     57       6.7214      0.12556
     58       6.7817      0.01709
     59       6.9401      0.00000
     60       6.9955      0.00000
     61       7.0765      0.00000
     62       7.2023      0.00000
     63       7.2279      0.00000
     64       7.3179      0.00000
     65       7.4176      0.00000
     66       7.4987      0.00000
[...]
     51       6.4250      1.99986
     52       6.4716      1.99838
     53       6.5390      1.97218
     54       6.6128      1.75208
     55       6.8138      0.09167
     56       6.9200      0.00143
     57       6.9798      0.00005
     58       7.0547      0.00000
     59       7.1033      0.00000
     60       7.2369      0.00000
     61       7.3237      0.00000
     62       7.4003      0.00000
     63       7.4891      0.00000
     64       7.5928      0.00000
     65       7.6491      0.00000
     66       7.6719      0.00000
     67       7.8130      0.00000
     68       7.8989      0.00000

 k-point     6 :       0.5000    0.0000    0.3333
  band No.  band energies     occupation 
      1       1.4017      2.00000
      2       1.5399      2.00000
      3       2.8273      2.00000
      4       2.9805      2.00000
      5       3.0433      2.00000
      6       3.1217      2.00000
      7       3.2118      2.00000
      8       3.2688      2.00000
      9       3.4174      2.00000
     10       3.5002      2.00000
     11       3.5955      2.00000
     12       3.6861      2.00000
     13       3.7171      2.00000
     14       3.7676      2.00000
     15       3.7983      2.00000
     16       4.1048      2.00000
     17       4.2654      2.00000
     18       4.3055      2.00000
     19       4.3319      2.00000
     20       4.4163      2.00000
     21       4.5052      2.00000
     22       4.7469      2.00000
     23       4.8150      2.00000
     24       4.8259      2.00000
     25       4.8790      2.00000
     26       4.9283      2.00000
     27       4.9797      2.00000
     28       5.0122      2.00000
     29       5.0638      2.00000
     30       5.1293      2.00000
     31       5.1896      2.00000
     32       5.2305      2.00000
     33       5.2857      2.00000
     34       5.3127      2.00000
     35       5.4583      2.00000
     36       5.5239      2.00000
     37       5.5920      2.00000
     38       5.6511      2.00000
     39       5.7184      2.00000
     40       5.7240      2.00000
     41       5.7947      2.00000
     42       5.8110      2.00000
     43       5.8924      2.00000
     44       5.9527      2.00000
     45       6.0067      2.00000
     46       6.0904      2.00000
     47       6.1474      2.00000
     48       6.1987      2.00000
     49       6.2277      2.00000
     50       6.3141      2.00000
     51       6.3431      2.00000
     52       6.4172      1.99991
     53       6.5085      1.99147
     54       6.6165      1.73016
     55       6.6877      1.07670
     56       6.7971      0.14685
     57       6.8181      0.08056
     58       7.0886      0.00000
     59       7.1393      0.00000
     60       7.2906      0.00000
     61       7.4536      0.00000
     62       7.5270      0.00000
     63       7.5822      0.00000
     64       7.6345      0.00000
     65       7.7151      0.00000
     66       7.7770      0.00000
     67       7.9012      0.00000
     68       7.9781      0.00000

 k-point     7 :       0.0000    0.5000    0.3333
  band No.  band energies     occupation 
      1       1.1617      2.00000
      2       1.7223      2.00000
      3       2.5598      2.00000
      4       2.7164      2.00000
      5       3.0984      2.00000
      6       3.1921      2.00000
      7       3.2473      2.00000
      8       3.5501      2.00000
      9       3.6467      2.00000
     10       3.7301      2.00000
     11       3.7900      2.00000
     12       3.8482      2.00000
     13       3.8794      2.00000
     14       3.9351      2.00000
     15       3.9652      2.00000
     16       4.0167      2.00000
     17       4.0732      2.00000
     18       4.1057      2.00000
     19       4.1769      2.00000
     20       4.2227      2.00000
     21       4.3177      2.00000
     22       4.4081      2.00000
     23       4.6513      2.00000
     24       4.7175      2.00000
     25       4.8263      2.00000
     26       4.9062      2.00000
     27       4.9469      2.00000
     28       4.9992      2.00000
     29       5.0563      2.00000
     30       5.1041      2.00000
     31       5.1563      2.00000
     32       5.2750      2.00000
     33       5.3334      2.00000
     34       5.3815      2.00000
     35       5.4608      2.00000
     36       5.5958      2.00000
     37       5.6498      2.00000
     38       5.6908      2.00000
     39       5.7581      2.00000
     40       5.8640      2.00000
     41       5.9482      2.00000
     42       5.9722      2.00000
     43       6.0647      2.00000
     44       6.0930      2.00000
     45       6.1908      2.00000
     46       6.2257      2.00000
     47       6.2536      2.00000
     48       6.2876      2.00000
     49       6.3655      2.00000
     50       6.4006      1.99997
     51       6.4522      1.99939
     52       6.4885      1.99643
     53       6.5209      1.98592
     54       6.5839      1.88226
     55       6.6452      1.51417
     56       6.8104      0.10115
     57       6.8948      0.00462
     58       7.0176      0.00000
     59       7.0960      0.00000
     60       7.2485      0.00000
     61       7.3030      0.00000
     62       7.3474      0.00000
     63       7.4062      0.00000
     64       7.4986      0.00000
     65       7.5658      0.00000
     66       7.6513      0.00000
     67       7.7307      0.00000
     68       7.7711      0.00000

 k-point     8 :       0.5000    0.5000    0.3333
  band No.  band energies     occupation 
      1       1.5235      2.00000
      2       1.7063      2.00000
      3       2.2777      2.00000
      4       2.4198      2.00000
      5       3.2128      2.00000
      6       3.4220      2.00000
      7       3.4462      2.00000
      8       3.5571      2.00000
      9       3.6218      2.00000
     10       3.6621      2.00000
     11       3.7372      2.00000
     12       3.7952      2.00000
     13       3.8374      2.00000
     14       3.8630      2.00000
     15       3.9008      2.00000
     16       3.9625      2.00000
     17       3.9781      2.00000
     18       4.0040      2.00000
     19       4.0669      2.00000
     20       4.0835      2.00000
     21       4.1837      2.00000
     22       4.3468      2.00000
     23       4.6577      2.00000
     24       4.8134      2.00000
     25       4.9276      2.00000
     26       4.9935      2.00000
     27       5.0758      2.00000
     28       5.1351      2.00000
     29       5.2060      2.00000
     30       5.2367      2.00000
     31       5.3048      2.00000
     32       5.3295      2.00000
     33       5.4056      2.00000
     34       5.5036      2.00000
     35       5.5632      2.00000
     36       5.5771      2.00000
     37       5.6337      2.00000
     38       5.6813      2.00000
     39       5.7690      2.00000
     40       5.8080      2.00000
     41       5.8612      2.00000
     42       5.8944      2.00000
     43       5.9407      2.00000
     44       5.9957      2.00000
     45       6.0702      2.00000
     46       6.1157      2.00000
     47       6.1629      2.00000
     48       6.2122      2.00000
     49       6.2757      2.00000
     50       6.3291      2.00000
     51       6.3460      2.00000
     52       6.3878      1.99999
     53       6.4221      1.99988
     54       6.4842      1.99706
     55       6.5052      1.99260
     56       6.6597      1.37746
     57       6.7507      0.42672
     58       6.8589      0.02013
     59       6.9015      0.00342
     60       7.3474      0.00000
     61       7.4013      0.00000
     62       7.4885      0.00000
     63       7.5694      0.00000
     64       7.6719      0.00000
     65       7.7409      0.00000
     66       7.7873      0.00000
     67       7.8828      0.00000
     68       8.0372      0.00000


--------------------------------------------------------------------------------------------------------


 soft charge-density along one line, spin component           1
         0         1         2         3         4         5         6         7         8         9
 total charge-density along one line
 
 pseudopotential strength for first ion, spin component:           1
 -1.066  -0.003  -0.006   0.002   0.002  -1.590  -0.003  -0.005
 -0.003  -1.050  -0.001   0.000  -0.005  -0.003  -1.575  -0.001
 -0.006  -0.001  -1.041   0.002  -0.015  -0.005  -0.001  -1.567
  0.002   0.000   0.002  -1.043  -0.001   0.002   0.000   0.002
  0.002  -0.005  -0.015  -0.001  -1.062   0.002  -0.005  -0.015
 -1.590  -0.003  -0.005   0.002   0.002  -2.064  -0.002  -0.005
 -0.003  -1.575  -0.001   0.000  -0.005  -0.002  -2.049  -0.001
 -0.005  -0.001  -1.567   0.002  -0.015  -0.005  -0.001  -2.042
  0.002   0.000   0.002  -1.569  -0.001   0.002   0.000   0.002
  0.002  -0.005  -0.015  -0.001  -1.586   0.002  -0.005  -0.014
 -0.001  -0.001  -0.006   0.002  -0.004  -0.001  -0.001  -0.005
  0.003   0.003   0.015  -0.006   0.010   0.003   0.003   0.014
  0.000   0.002   0.004  -0.000   0.005   0.000   0.002   0.004
 -0.000  -0.005   0.002  -0.001  -0.000  -0.000  -0.004   0.002
 -0.006  -0.000  -0.001   0.002  -0.001  -0.006  -0.000  -0.001
 -0.000  -0.003  -0.005   0.000  -0.007  -0.000  -0.003  -0.004
  0.000   0.007  -0.003   0.001   0.000   0.000   0.006  -0.003
  0.008   0.000   0.000  -0.003   0.000   0.007   0.000   0.000
 total augmentation occupancy for first ion, spin component:           1
  0.540  -0.026  -0.034  -0.025   0.034  -0.889   0.058   0.059   0.051  -0.046  -0.014   0.000   0.006  -0.003  -0.087   0.000
 -0.026   0.634  -0.047  -0.024  -0.026   0.057  -1.071   0.080   0.042   0.058   0.032   0.001   0.014  -0.047  -0.003   0.001
 -0.034  -0.047   0.538   0.036  -0.068   0.059   0.081  -0.925  -0.075   0.142   0.047   0.003   0.048   0.010  -0.017   0.002
 -0.025  -0.024   0.036   0.439  -0.006   0.052   0.043  -0.076  -0.675   0.013  -0.009  -0.000  -0.006  -0.014   0.014  -0.000
  0.034  -0.026  -0.068  -0.006   0.598  -0.046   0.060   0.146   0.012  -0.990   0.031   0.001   0.052  -0.000   0.015   0.002
 -0.889   0.057   0.059   0.052  -0.046   2.005  -0.077  -0.078  -0.051   0.022   0.023   0.000   0.002  -0.004   0.069  -0.000
  0.058  -1.071   0.081   0.043   0.060  -0.077   2.190  -0.087  -0.041  -0.064  -0.034  -0.001  -0.013   0.026  -0.001  -0.001
  0.059   0.080  -0.925  -0.076   0.146  -0.078  -0.087   2.093   0.063  -0.168  -0.011  -0.004  -0.051   0.003   0.013  -0.002
  0.051   0.042  -0.075  -0.675   0.012  -0.051  -0.041   0.063   1.795  -0.035  -0.013   0.002  -0.002   0.012  -0.013   0.000
 -0.046   0.058   0.142   0.013  -0.990   0.022  -0.064  -0.168  -0.035   2.058  -0.011  -0.002  -0.040   0.004  -0.012  -0.002
 -0.014   0.032   0.047  -0.009   0.031   0.023  -0.034  -0.011  -0.013  -0.011   2.088   0.048   0.017  -0.002   0.011   0.002
  0.000   0.001   0.003  -0.000   0.001   0.000  -0.001  -0.004   0.002  -0.002   0.048   0.001   0.002  -0.000  -0.000   0.000
  0.006   0.014   0.048  -0.006   0.052   0.002  -0.013  -0.051  -0.002  -0.040   0.017   0.002   0.424  -0.006   0.004   0.012
 -0.003  -0.047   0.010  -0.014  -0.000  -0.004   0.026   0.003   0.012   0.004  -0.002  -0.000  -0.006   0.380   0.011  -0.000
 -0.087  -0.003  -0.017   0.014   0.015   0.069  -0.001   0.013  -0.013  -0.012   0.011  -0.000   0.004   0.011   0.409  -0.000
  0.000   0.001   0.002  -0.000   0.002  -0.000  -0.001  -0.002   0.000  -0.002   0.002   0.000   0.012  -0.000  -0.000   0.000
 -0.000  -0.001   0.000  -0.000  -0.000   0.000   0.001   0.000   0.001   0.000  -0.001  -0.000  -0.000   0.010   0.001  -0.000
 -0.003  -0.000  -0.001   0.000   0.000   0.004   0.000   0.001  -0.001  -0.000  -0.000  -0.000  -0.000   0.001   0.011  -0.000


------------------------ aborting loop because EDIFF is reached ----------------------------------------


    CHARGE:  cpu time    0.0280: real time    0.0280
    FORLOC:  cpu time    0.0033: real time    0.0033
    FORNL :  cpu time    0.5501: real time    0.5504
    STRESS:  cpu time    0.6256: real time    0.6260
    FORCOR:  cpu time    0.0168: real time    0.0168
    FORHAR:  cpu time    0.0058: real time    0.0058
    MIXING:  cpu time    0.0008: real time    0.0008
    OFIELD:  cpu time    0.0000: real time    0.0000

  FORCE on cell =-STRESS in cart. coord.  units (eV):
  Direction    XX          YY          ZZ          XY          YZ          ZX
  --------------------------------------------------------------------------------------
  Alpha Z   575.93181   575.93181   575.93181
  Ewald   -1706.51185 -1958.18740 -1667.28371    -9.27508    44.77655   -33.94855
  Hartree   293.43179    63.65665   307.10540    -5.23834    46.08036    -5.68885
  E(xc)    -500.13556  -498.43639  -501.88652     0.10236     0.02297     1.55015
  Local     128.56892   608.60573    77.36632    14.99596   -90.04494    35.28098
  n-local   -94.56009   -91.50606   -98.80453    -0.34739     0.15059     1.66234
  augment   447.95792   446.36817   449.51464     0.20028     0.45797    -1.24423
  Kinetic   855.35386   853.69057   858.23998    -0.46431    -1.48460     2.40823
  Fock        0.00000     0.00000     0.00000     0.00000     0.00000     0.00000
  -------------------------------------------------------------------------------------
  Total       0.03680     0.12308     0.18340    -0.02652    -0.04111     0.02008
  in kB       0.23723     0.79348     1.18239    -0.17099    -0.26501     0.12947
  external pressure =        0.74 kB  Pullay stress =        0.00 kB


 VOLUME and BASIS-vectors are now :
 -----------------------------------------------------------------------------
  energy-cutoff  :      267.88
  volume of cell :      248.51
      direct lattice vectors                 reciprocal lattice vectors
     7.644744691 -0.590148947  0.032983261     0.132805572  0.025330270 -0.009582434
    -1.624811239  8.048715990 -1.242673090     0.009554990  0.122414195 -0.024341048
     0.138286247  0.780587717  3.979957654     0.001882776  0.038011799  0.243738295

  length of vectors
     7.667560569  8.304581691  4.058140362     0.135538798  0.125175955  0.246691707


 FORCES acting on ions
    electron-ion (+dipol)            ewald-force                    non-local-force                 convergence-correction
 -----------------------------------------------------------------------------------------------
   -.938E+00 0.845E+02 -.149E+02   0.111E+01 -.848E+02 0.150E+02   -.165E+00 0.334E+00 -.739E-01   -.935E-02 -.995E-02 0.762E-03
   0.166E+02 -.826E+02 0.152E+02   -.165E+02 0.829E+02 -.154E+02   -.958E-01 -.387E+00 0.134E+00   0.105E-01 0.506E-02 -.433E-02
   -.143E+02 0.770E+02 -.143E+02   0.139E+02 -.781E+02 0.144E+02   0.426E+00 0.105E+01 -.256E-01   -.202E-01 -.234E-01 0.631E-02
   0.152E+02 0.466E+02 -.895E+01   -.154E+02 -.469E+02 0.904E+01   0.188E+00 0.254E+00 -.915E-01   0.135E-01 -.132E-02 0.122E-02
   -.931E+01 -.197E+02 0.387E+01   0.937E+01 0.197E+02 -.381E+01   -.353E-01 -.851E-01 -.524E-01   -.187E-01 0.542E-01 -.841E-02
   -.879E+01 -.803E+02 0.168E+02   0.851E+01 0.811E+02 -.170E+02   0.285E+00 -.884E+00 0.203E+00   0.663E-02 0.193E-01 -.396E-02
   -.356E+02 -.451E+02 0.139E+02   0.362E+02 0.455E+02 -.140E+02   -.495E+00 -.443E+00 0.105E+00   -.265E-01 -.829E-02 0.568E-02
   0.276E+01 0.346E+01 0.594E+00   -.270E+01 -.348E+01 -.718E+00   -.720E-01 -.221E-01 0.141E+00   0.156E-01 0.411E-01 -.108E-01
   -.114E+01 -.693E+01 0.520E+00   0.124E+01 0.693E+01 -.414E+00   -.943E-01 -.596E-01 -.987E-01   -.111E-01 0.494E-01 -.995E-02
   0.237E+02 0.103E+02 -.549E+01   -.243E+02 -.102E+02 0.555E+01   0.574E+00 0.938E-02 -.581E-01   0.136E-01 -.462E-01 0.649E-02
   0.625E+01 0.154E+02 -.374E+01   -.631E+01 -.155E+02 0.379E+01   0.512E-01 0.729E-01 -.375E-01   0.126E-01 0.183E-01 -.460E-02
   -.835E+01 -.556E+02 0.102E+02   0.863E+01 0.566E+02 -.102E+02   -.267E+00 -.934E+00 -.578E-01   -.991E-02 0.853E-02 -.666E-03
   0.226E+02 -.808E+02 0.153E+02   -.228E+02 0.818E+02 -.155E+02   0.141E+00 -.957E+00 0.128E+00   0.309E-01 0.847E-02 -.674E-02
   0.539E+01 0.882E+02 -.183E+02   -.518E+01 -.891E+02 0.185E+02   -.226E+00 0.953E+00 -.178E+00   0.664E-02 -.266E-02 -.245E-02
   -.217E+02 -.570E+02 0.111E+02   0.217E+02 0.572E+02 -.112E+02   0.281E-02 -.278E+00 0.137E+00   -.368E-02 0.391E-01 -.609E-02
   0.619E+01 0.504E+02 -.109E+02   -.616E+01 -.507E+02 0.109E+02   -.265E-01 0.377E+00 0.293E-02   -.896E-02 -.460E-01 0.141E-01
   0.897E+00 0.535E+02 -.114E+02   -.699E+00 -.544E+02 0.116E+02   -.195E+00 0.878E+00 -.167E+00   -.562E-02 -.151E-01 0.388E-02
   0.138E+02 -.313E+01 0.154E+01   -.127E+02 0.326E+01 -.201E+01   -.111E+01 -.701E-01 0.464E+00   0.391E-01 -.528E-01 0.334E-02
   0.252E+02 0.308E+02 -.631E+01   -.258E+02 -.310E+02 0.632E+01   0.610E+00 0.305E+00 -.382E-01   0.623E-02 -.947E-01 0.256E-01
   -.382E+02 -.290E+02 0.530E+01   0.380E+02 0.292E+02 -.492E+01   0.291E+00 -.177E+00 -.390E+00   -.382E-01 -.300E-01 0.123E-01
 -----------------------------------------------------------------------------------------------
   0.218E+00 0.143E+00 -.737E-01   0.426E-13 -.249E-13 0.799E-14   -.215E+00 -.640E-01 0.456E-01   0.307E-02 -.869E-01 0.217E-01
 
 
 POSITION                                       TOTAL-FORCE (eV/Angst)
 -----------------------------------------------------------------------------------
      4.64439      6.75951      0.03847         0.001492     -0.001378      0.002322
      5.47550      2.60256      0.63771         0.001335     -0.003204     -0.000840
      1.46562     -0.13309      1.13878        -0.007427     -0.002401     -0.001930
      1.77690      6.18610      0.14115         0.006481      0.006795      0.000277
      3.60260      4.38026      0.38043         0.007677     -0.002566     -0.002305
      0.71103      3.77631      0.50937         0.004123      0.002928      0.000036
      2.54469      2.06784      0.76914        -0.002551      0.004586     -0.008140
     -1.14354      5.55737      0.26897         0.000168     -0.007565      0.005546
      5.14370      5.07394      2.32299        -0.001047     -0.007716     -0.002421
      5.97270      1.05149      2.94076        -0.001257      0.011494      0.002234
      0.39132      6.26306      2.19148         0.000191     -0.001301      0.001566
      4.12941      2.77075      2.66867        -0.004963     -0.000230     -0.001975
     -0.61414      3.87191      2.55170         0.002046      0.000194      0.003900
      6.19114      7.46692      1.96915        -0.007990     -0.010259      0.006237
      2.20902      4.46180      2.44111         0.010633      0.001631     -0.002913
      3.06941      0.52562      3.07292        -0.008605      0.002230     -0.003058
      3.27056      6.81534      2.08432        -0.003295      0.004449      0.002099
      7.25794      0.94599      0.91740         0.001036     -0.000992      0.002728
      4.40725      0.39099      1.01176         0.001617      0.006080     -0.002686
      1.27511      2.19963      2.79778         0.000337     -0.002774     -0.000678
 -----------------------------------------------------------------------------------
    total drift:                                0.006240     -0.007592     -0.006382


--------------------------------------------------------------------------------------------------------



  FREE ENERGIE OF THE ION-ELECTRON SYSTEM (eV)
  ---------------------------------------------------
  free  energy   TOTEN  =      -177.46204525 eV

  energy  without entropy=     -177.37078999  energy(sigma->0) =     -177.41641762
 
 d Force =-0.4997455E-04[-0.921E-04,-0.789E-05]  d Energy =-0.6455133E-04 0.146E-04
 d Force = 0.9978151E-01[ 0.991E-01, 0.101E+00]  d Ewald  = 0.1414296E+01-0.131E+01


--------------------------------------------------------------------------------------------------------


    POTLOK:  cpu time    0.0219: real time    0.0219


--------------------------------------------------------------------------------------------------------


