 running on    4 total cores
 distrk:  each k-point on    4 cores,    1 groups
 distr:  one band on    1 cores,    4 groups
 using from now: INCAR     
 vasp.5.4.4.18Apr17-6-g9f103f2a35 (build Jul 11 2019 11:52:51) complex          
  
 POSCAR found type information on POSCAR  V  Fe
 POSCAR found :  2 types and      20 ions
 scaLAPACK will be used

 ----------------------------------------------------------------------------- 
|                                                                             |
|  ADVICE TO THIS USER RUNNING 'VASP/VAMP'   (HEAR YOUR MASTER'S VOICE ...):  |
|                                                                             |
|      You have a (more or less) 'large supercell' and for larger cells       |
|      it might be more efficient to use real space projection opertators     |
|      So try LREAL= Auto  in the INCAR   file.                               |
|      Mind:          For very  accurate calculation you might also keep the  |
|      reciprocal projection scheme          (i.e. LREAL=.FALSE.)             |
|                                                                             |
 ----------------------------------------------------------------------------- 

 LDA part: xc-table for Pade appr. of Perdew
 POSCAR, INCAR and KPOINTS ok, starting setup
 FFT: planning ...
 WAVECAR not read
 entering main loop
       N       E                     dE             d eps       ncg     rms          rms(c)
DAV:   1     0.663561648219E+03    0.66356E+03   -0.23024E+04  1088   0.111E+03
DAV:   2    -0.437446701354E+02   -0.70731E+03   -0.68325E+03  1088   0.340E+02
DAV:   3    -0.168302898442E+03   -0.12456E+03   -0.11686E+03  1868   0.150E+02
DAV:   4    -0.182585285863E+03   -0.14282E+02   -0.13494E+02  1784   0.659E+01
DAV:   5    -0.183490039823E+03   -0.90475E+00   -0.86350E+00  1792   0.132E+01    0.523E+01
DAV:   6    -0.191267401039E+03   -0.77774E+01   -0.22273E+02  2096   0.118E+02    0.494E+01
DAV:   7    -0.178733847624E+03    0.12534E+02   -0.37212E+02  2176   0.169E+02    0.346E+01
DAV:   8    -0.177704258673E+03    0.10296E+01   -0.12312E+02  2136   0.991E+01    0.306E+01
DAV:   9    -0.166364163238E+03    0.11340E+02   -0.51201E+01  2160   0.553E+01    0.103E+01
DAV:  10    -0.166139689164E+03    0.22447E+00   -0.85205E+00  1928   0.239E+01    0.894E+00
DAV:  11    -0.165809166861E+03    0.33052E+00   -0.29946E+00  1968   0.174E+01    0.715E+00
DAV:  12    -0.165634745368E+03    0.17442E+00   -0.16614E+00  1984   0.112E+01    0.507E+00
DAV:  13    -0.165659689849E+03   -0.24944E-01   -0.13312E+00  2160   0.100E+01    0.588E+00
DAV:  14    -0.165459847535E+03    0.19984E+00   -0.17447E+00  2144   0.116E+01    0.358E+00
DAV:  15    -0.165404973904E+03    0.54874E-01   -0.63866E-01  2128   0.700E+00    0.219E+00
DAV:  16    -0.165381399417E+03    0.23574E-01   -0.25192E-01  2136   0.408E+00    0.111E+00
DAV:  17    -0.165376232388E+03    0.51670E-02   -0.10525E-01  1848   0.259E+00    0.840E-01
DAV:  18    -0.165376976673E+03   -0.74429E-03   -0.56775E-02  2160   0.193E+00    0.765E-01
DAV:  19    -0.165372324141E+03    0.46525E-02   -0.35932E-02  2176   0.151E+00    0.332E-01
DAV:  20    -0.165372104738E+03    0.21940E-03   -0.79523E-03  1760   0.696E-01    0.247E-01
DAV:  21    -0.165371672560E+03    0.43218E-03   -0.38151E-03  2144   0.487E-01    0.103E-01
DAV:  22    -0.165371710331E+03   -0.37771E-04   -0.89838E-04  2176   0.232E-01    0.103E-01
DAV:  23    -0.165371639706E+03    0.70624E-04   -0.48669E-04  1832   0.171E-01    0.448E-02
DAV:  24    -0.165371631669E+03    0.80374E-05   -0.11852E-04  1584   0.849E-02    0.229E-02
DAV:  25    -0.165371625449E+03    0.62196E-05   -0.18737E-05   792   0.434E-02
   1 F= -.16537163E+03 E0= -.16530826E+03  d E =-.165372E+03
 curvature:   0.00 expect dE= 0.000E+00 dE for cont linesearch  0.000E+00
 trial: gam= 0.00000 g(F)=  0.319E+01 g(S)=  0.679E+01 ort = 0.000E+00 (trialstep = 0.100E+01)
 search vector abs. value=  0.998E+01
 bond charge predicted
       N       E                     dE             d eps       ncg     rms          rms(c)
DAV:   1    -0.177269673597E+03   -0.11898E+02   -0.78996E+02  1088   0.184E+02    0.462E+01
DAV:   2    -0.315527078088E+03   -0.13826E+03   -0.16246E+03  1760   0.298E+02    0.917E+01
DAV:   3    -0.168314630990E+03    0.14721E+03   -0.40214E+02  2000   0.133E+02    0.299E+01
DAV:   4    -0.179045231788E+03   -0.10731E+02   -0.25274E+02  2176   0.107E+02    0.322E+01
DAV:   5    -0.170815318014E+03    0.82299E+01   -0.60527E+01  2168   0.530E+01    0.173E+01
DAV:   6    -0.169544083680E+03    0.12712E+01   -0.14971E+01  2072   0.279E+01    0.117E+01
DAV:   7    -0.171036423087E+03   -0.14923E+01   -0.17744E+01  2176   0.301E+01    0.204E+01
DAV:   8    -0.170247331912E+03    0.78909E+00   -0.11393E+01  2176   0.256E+01    0.179E+01
DAV:   9    -0.169129998442E+03    0.11173E+01   -0.56472E+00  2096   0.162E+01    0.105E+01
DAV:  10    -0.168832041016E+03    0.29796E+00   -0.71170E+00  2176   0.162E+01    0.642E+00
DAV:  11    -0.168776696868E+03    0.55344E-01   -0.20820E+00  2176   0.104E+01    0.567E+00
DAV:  12    -0.168636459726E+03    0.14024E+00   -0.12635E+00  2176   0.887E+00    0.257E+00
DAV:  13    -0.168661507558E+03   -0.25048E-01   -0.86606E-01  1928   0.630E+00    0.315E+00
DAV:  14    -0.168564082493E+03    0.97425E-01   -0.60918E-01  1760   0.552E+00    0.113E+00
DAV:  15    -0.168564411050E+03   -0.32856E-03   -0.10701E-01  1832   0.217E+00    0.770E-01
DAV:  16    -0.168561179584E+03    0.32315E-02   -0.31644E-02  2160   0.116E+00    0.303E-01
DAV:  17    -0.168562030722E+03   -0.85114E-03   -0.11973E-02  1768   0.663E-01    0.388E-01
DAV:  18    -0.168561192808E+03    0.83791E-03   -0.65975E-03  1928   0.525E-01    0.160E-01
DAV:  19    -0.168561228958E+03   -0.36150E-04   -0.20365E-03  1824   0.291E-01    0.156E-01
DAV:  20    -0.168561003846E+03    0.22511E-03   -0.12779E-03  1800   0.254E-01    0.402E-02
DAV:  21    -0.168561018795E+03   -0.14948E-04   -0.22132E-04  1808   0.101E-01    0.448E-02
DAV:  22    -0.168561009458E+03    0.93370E-05   -0.65735E-05  1224   0.645E-02
   2 F= -.16856101E+03 E0= -.16848672E+03  d E =-.318938E+01
 trial-energy change:   -3.189384  1 .order   -3.646605   -9.980935    2.687725
 step:   0.7469(harm=  0.7878)  dis= 0.07754  next Energy=  -168.908540 (dE=-0.354E+01)
 bond charge predicted
       N       E                     dE             d eps       ncg     rms          rms(c)
DAV:   1    -0.169665988348E+03   -0.11050E+01   -0.41565E+01  1088   0.366E+01    0.127E+01
DAV:   2    -0.194472682942E+03   -0.24807E+02   -0.15719E+02  2096   0.117E+02    0.536E+01
DAV:   3    -0.169542329840E+03    0.24930E+02   -0.94474E+01  2112   0.675E+01    0.146E+01
DAV:   4    -0.169406381098E+03    0.13595E+00   -0.16469E+01  2176   0.296E+01    0.906E+00
DAV:   5    -0.169116885369E+03    0.28950E+00   -0.49338E+00  2032   0.198E+01    0.657E+00
DAV:   6    -0.168975980335E+03    0.14091E+00   -0.14184E+00  2096   0.101E+01    0.429E+00
DAV:   7    -0.168926508702E+03    0.49472E-01   -0.99661E-01  2176   0.775E+00    0.309E+00
DAV:   8    -0.168880065705E+03    0.46443E-01   -0.44997E-01  2176   0.503E+00    0.208E+00
DAV:   9    -0.168887018458E+03   -0.69528E-02   -0.15464E-01  2144   0.311E+00    0.227E+00
DAV:  10    -0.168869998002E+03    0.17020E-01   -0.82869E-02  2144   0.229E+00    0.163E+00
DAV:  11    -0.168866011742E+03    0.39863E-02   -0.20539E-02  2104   0.100E+00    0.138E+00
DAV:  12    -0.168858269678E+03    0.77421E-02   -0.20830E-02  2176   0.981E-01    0.622E-01
DAV:  13    -0.168857855065E+03    0.41461E-03   -0.49728E-03  1832   0.459E-01    0.502E-01
DAV:  14    -0.168857214756E+03    0.64031E-03   -0.17568E-03  2176   0.301E-01    0.303E-01
DAV:  15    -0.168857046312E+03    0.16844E-03   -0.75653E-04  2008   0.182E-01    0.241E-01
DAV:  16    -0.168856828905E+03    0.21741E-03   -0.65608E-04  2176   0.171E-01    0.101E-01
DAV:  17    -0.168856803016E+03    0.25889E-04   -0.15606E-04  1744   0.794E-02    0.686E-02
DAV:  18    -0.168856780894E+03    0.22122E-04   -0.43388E-05  1064   0.550E-02    0.336E-02
DAV:  19    -0.168856777734E+03    0.31597E-05   -0.23665E-05   864   0.329E-02
   3 F= -.16885678E+03 E0= -.16878495E+03  d E =-.348515E+01
 curvature:  -0.38 expect dE=-0.152E+01 dE for cont linesearch -0.269E-03
 trial: gam= 0.40986 g(F)=  0.457E+00 g(S)=  0.355E+01 ort =-0.841E-01 (trialstep = 0.949E+00)
 search vector abs. value=  0.561E+01
 bond charge predicted
       N       E                     dE             d eps       ncg     rms          rms(c)
DAV:   1    -0.177590625052E+03   -0.87338E+01   -0.33108E+02  1096   0.921E+01    0.299E+01
DAV:   2    -0.246518677590E+03   -0.68928E+02   -0.50704E+02  1808   0.238E+02    0.105E+02
DAV:   3    -0.190383490607E+03    0.56135E+02   -0.23702E+02  1976   0.845E+01    0.407E+01
DAV:   4    -0.173162952837E+03    0.17221E+02   -0.98493E+01  2160   0.773E+01    0.144E+01
DAV:   5    -0.172178713952E+03    0.98424E+00   -0.28544E+01  1912   0.401E+01    0.916E+00
DAV:   6    -0.173391996120E+03   -0.12133E+01   -0.12167E+01  2072   0.312E+01    0.168E+01
DAV:   7    -0.171653905571E+03    0.17381E+01   -0.87690E+00  2160   0.283E+01    0.637E+00
DAV:   8    -0.171626758434E+03    0.27147E-01   -0.17809E+00  2056   0.101E+01    0.514E+00
DAV:   9    -0.171540291581E+03    0.86467E-01   -0.72951E-01  2120   0.732E+00    0.351E+00
DAV:  10    -0.171515463868E+03    0.24828E-01   -0.30173E-01  2160   0.425E+00    0.299E+00
DAV:  11    -0.171515738600E+03   -0.27473E-03   -0.10239E-01  2144   0.300E+00    0.274E+00
DAV:  12    -0.171507755703E+03    0.79829E-02   -0.60302E-02  2144   0.213E+00    0.237E+00
DAV:  13    -0.171498002258E+03    0.97534E-02   -0.29897E-02  2176   0.128E+00    0.165E+00
DAV:  14    -0.171492839223E+03    0.51630E-02   -0.19024E-02  2160   0.851E-01    0.116E+00
DAV:  15    -0.171491989896E+03    0.84933E-03   -0.36588E-03  2024   0.383E-01    0.931E-01
DAV:  16    -0.171491273701E+03    0.71619E-03   -0.20658E-03  2096   0.304E-01    0.765E-01
DAV:  17    -0.171490411983E+03    0.86172E-03   -0.16302E-03  2176   0.291E-01    0.485E-01
DAV:  18    -0.171490133157E+03    0.27883E-03   -0.81663E-04  2136   0.196E-01    0.383E-01
DAV:  19    -0.171489882946E+03    0.25021E-03   -0.42250E-04  2176   0.144E-01    0.243E-01
DAV:  20    -0.171489840193E+03    0.42753E-04   -0.16761E-04  1792   0.836E-02    0.205E-01
DAV:  21    -0.171489757068E+03    0.83125E-04   -0.17790E-04  2104   0.971E-02    0.797E-02
DAV:  22    -0.171489745895E+03    0.11173E-04   -0.31621E-05  1016   0.456E-02    0.514E-02
DAV:  23    -0.171489738958E+03    0.69375E-05   -0.18140E-05   736   0.315E-02
   4 F= -.17148974E+03 E0= -.17142771E+03  d E =-.263296E+01
 trial-energy change:   -2.632961  1 .order   -2.461654   -3.771167   -1.152140
 step:   1.2265(harm=  1.3670)  dis= 0.09510  next Energy=  -171.662160 (dE=-0.281E+01)
 bond charge predicted
       N       E                     dE             d eps       ncg     rms          rms(c)
DAV:   1    -0.172245143779E+03   -0.75540E+00   -0.31992E+01  1088   0.315E+01    0.922E+00
DAV:   2    -0.184568185767E+03   -0.12323E+02   -0.78068E+01  2176   0.847E+01    0.407E+01
DAV:   3    -0.171658662785E+03    0.12910E+02   -0.55643E+01  2144   0.633E+01    0.770E+00
DAV:   4    -0.171968917136E+03   -0.31025E+00   -0.93999E+00  2144   0.205E+01    0.593E+00
DAV:   5    -0.171900067209E+03    0.68850E-01   -0.21865E+00  1904   0.145E+01    0.518E+00
DAV:   6    -0.171773365336E+03    0.12670E+00   -0.89986E-01  1904   0.916E+00    0.326E+00
DAV:   7    -0.171735380064E+03    0.37985E-01   -0.55398E-01  2128   0.606E+00    0.186E+00
DAV:   8    -0.171715416672E+03    0.19963E-01   -0.24498E-01  2152   0.386E+00    0.133E+00
DAV:   9    -0.171714957889E+03    0.45878E-03   -0.51492E-02  2080   0.208E+00    0.133E+00
DAV:  10    -0.171709521102E+03    0.54368E-02   -0.19939E-02  2080   0.130E+00    0.975E-01
DAV:  11    -0.171708017301E+03    0.15038E-02   -0.10786E-02  2176   0.765E-01    0.776E-01
DAV:  12    -0.171704981095E+03    0.30362E-02   -0.12272E-02  2176   0.796E-01    0.315E-01
DAV:  13    -0.171704940943E+03    0.40153E-04   -0.27127E-03  1840   0.375E-01    0.258E-01
DAV:  14    -0.171704850492E+03    0.90450E-04   -0.58280E-04  1776   0.186E-01    0.214E-01
DAV:  15    -0.171704789658E+03    0.60835E-04   -0.23483E-04  1912   0.105E-01    0.177E-01
DAV:  16    -0.171704643987E+03    0.14567E-03   -0.48067E-04  2176   0.162E-01    0.568E-02
DAV:  17    -0.171704634851E+03    0.91368E-05   -0.10248E-04  1592   0.694E-02    0.323E-02
DAV:  18    -0.171704626130E+03    0.87208E-05   -0.17716E-05   800   0.404E-02
   5 F= -.17170463E+03 E0= -.17164333E+03  d E =-.284785E+01
 curvature:  -0.86 expect dE=-0.120E+01 dE for cont linesearch -0.617E-02
 trial: gam= 0.43068 g(F)=  0.621E+00 g(S)=  0.778E+00 ort = 0.201E+00 (trialstep = 0.100E+01)
 search vector abs. value=  0.261E+01
 bond charge predicted
       N       E                     dE             d eps       ncg     rms          rms(c)
DAV:   1    -0.173438398726E+03   -0.17338E+01   -0.14640E+02  1088   0.501E+01    0.800E+00
DAV:   2    -0.179657084058E+03   -0.62187E+01   -0.50582E+01  2160   0.579E+01    0.307E+01
DAV:   3    -0.173093508004E+03    0.65636E+01   -0.29102E+01  2160   0.398E+01    0.505E+00
DAV:   4    -0.173621919307E+03   -0.52841E+00   -0.83472E+00  2176   0.200E+01    0.840E+00
DAV:   5    -0.173099380576E+03    0.52254E+00   -0.46994E+00  2176   0.179E+01    0.485E+00
DAV:   6    -0.172987691622E+03    0.11169E+00   -0.15814E+00  2144   0.115E+01    0.281E+00
DAV:   7    -0.172972482323E+03    0.15209E-01   -0.59241E-01  2160   0.643E+00    0.221E+00
DAV:   8    -0.172930705092E+03    0.41777E-01   -0.26839E-01  2168   0.412E+00    0.555E-01
DAV:   9    -0.172931353303E+03   -0.64821E-03   -0.37790E-02  2008   0.175E+00    0.538E-01
DAV:  10    -0.172929230597E+03    0.21227E-02   -0.16029E-02  2016   0.107E+00    0.230E-01
DAV:  11    -0.172929017307E+03    0.21329E-03   -0.70736E-03  1792   0.622E-01    0.167E-01
DAV:  12    -0.172928976626E+03    0.40680E-04   -0.23797E-03  1920   0.371E-01    0.123E-01
DAV:  13    -0.172928820915E+03    0.15571E-03   -0.13965E-03  1760   0.259E-01    0.442E-02
DAV:  14    -0.172928838840E+03   -0.17925E-04   -0.29485E-04  1896   0.127E-01    0.451E-02
DAV:  15    -0.172928816089E+03    0.22750E-04   -0.14405E-04  1520   0.929E-02    0.136E-02
DAV:  16    -0.172928817540E+03   -0.14503E-05   -0.25377E-05   848   0.432E-02
   6 F= -.17292882E+03 E0= -.17285387E+03  d E =-.122419E+01
 trial-energy change:   -1.224191  1 .order   -1.216789   -1.492644   -0.940935
 step:   2.4384(harm=  2.7185)  dis= 0.18648  next Energy=  -173.621563 (dE=-0.192E+01)
 bond charge predicted
       N       E                     dE             d eps       ncg     rms          rms(c)
DAV:   1    -0.174443423604E+03   -0.15146E+01   -0.29913E+02  1088   0.711E+01    0.103E+01
DAV:   2    -0.179528985452E+03   -0.50856E+01   -0.56317E+01  2000   0.598E+01    0.275E+01
DAV:   3    -0.173972782674E+03    0.55562E+01   -0.32017E+01  2048   0.421E+01    0.718E+00
DAV:   4    -0.174920810288E+03   -0.94803E+00   -0.14718E+01  2176   0.268E+01    0.116E+01
DAV:   5    -0.173528676596E+03    0.13921E+01   -0.87922E+00  2152   0.221E+01    0.271E+00
DAV:   6    -0.173623772433E+03   -0.95096E-01   -0.21500E+00  2152   0.110E+01    0.422E+00
DAV:   7    -0.173529189494E+03    0.94583E-01   -0.10099E+00  2160   0.891E+00    0.265E+00
DAV:   8    -0.173472839517E+03    0.56350E-01   -0.31767E-01  2136   0.450E+00    0.707E-01
DAV:   9    -0.173477349558E+03   -0.45100E-02   -0.73861E-02  2112   0.223E+00    0.949E-01
DAV:  10    -0.173470748869E+03    0.66007E-02   -0.37032E-02  2096   0.173E+00    0.289E-01
DAV:  11    -0.173471329907E+03   -0.58104E-03   -0.12201E-02  1856   0.795E-01    0.332E-01
DAV:  12    -0.173470428963E+03    0.90094E-03   -0.64475E-03  2152   0.620E-01    0.107E-01
DAV:  13    -0.173470507403E+03   -0.78440E-04   -0.26680E-03  1760   0.346E-01    0.134E-01
DAV:  14    -0.173470365391E+03    0.14201E-03   -0.10230E-03  2144   0.253E-01    0.428E-02
DAV:  15    -0.173470356064E+03    0.93265E-05   -0.23218E-04  1720   0.985E-02    0.258E-02
DAV:  16    -0.173470353148E+03    0.29159E-05   -0.33206E-05   992   0.548E-02
   7 F= -.17347035E+03 E0= -.17340511E+03  d E =-.176573E+01
 curvature:  -2.33 expect dE=-0.412E+01 dE for cont linesearch -0.142E+00
 ZBRENT: interpolating
 opt :   2.0104  next Energy=  -173.555678 (dE=-0.185E+01)
 bond charge predicted
       N       E                     dE             d eps       ncg     rms          rms(c)
DAV:   1    -0.173614062787E+03   -0.14371E+00   -0.25997E+01  1088   0.199E+01    0.293E+00
DAV:   2    -0.173845511074E+03   -0.23145E+00   -0.32267E+00  2144   0.131E+01    0.611E+00
DAV:   3    -0.173564279721E+03    0.28123E+00   -0.23513E+00  2168   0.124E+01    0.224E+00
DAV:   4    -0.173655682883E+03   -0.91403E-01   -0.99799E-01  2112   0.847E+00    0.401E+00
DAV:   5    -0.173512695967E+03    0.14299E+00   -0.81873E-01  2128   0.719E+00    0.101E+00
DAV:   6    -0.173509790781E+03    0.29052E-02   -0.16035E-01  2160   0.286E+00    0.755E-01
DAV:   7    -0.173508097156E+03    0.16936E-02   -0.40340E-02  2136   0.191E+00    0.631E-01
DAV:   8    -0.173504799882E+03    0.32973E-02   -0.17350E-02  2112   0.110E+00    0.121E-01
DAV:   9    -0.173505212801E+03   -0.41292E-03   -0.49593E-03  2176   0.520E-01    0.268E-01
DAV:  10    -0.173504748619E+03    0.46418E-03   -0.31325E-03  2168   0.485E-01    0.102E-01
DAV:  11    -0.173504707283E+03    0.41336E-04   -0.77552E-04  2080   0.230E-01    0.670E-02
DAV:  12    -0.173504693604E+03    0.13679E-04   -0.33854E-04  2072   0.137E-01    0.417E-02
DAV:  13    -0.173504680314E+03    0.13290E-04   -0.18476E-04  1704   0.877E-02    0.242E-02
DAV:  14    -0.173504678536E+03    0.17776E-05   -0.21742E-05   760   0.531E-02
   8 F= -.17350468E+03 E0= -.17343669E+03  d E =-.180005E+01
 curvature:  -1.40 expect dE=-0.189E+01 dE for cont linesearch -0.362E-02
 trial: gam= 0.85936 g(F)=  0.630E+00 g(S)=  0.713E+00 ort = 0.822E-01 (trialstep = 0.923E+00)
 search vector abs. value=  0.341E+01
 bond charge predicted
       N       E                     dE             d eps       ncg     rms          rms(c)
DAV:   1    -0.175437190623E+03   -0.19325E+01   -0.18832E+02  1088   0.599E+01    0.144E+01
DAV:   2    -0.199492049837E+03   -0.24055E+02   -0.16973E+02  2128   0.124E+02    0.517E+01
DAV:   3    -0.174795406589E+03    0.24697E+02   -0.10420E+02  2096   0.754E+01    0.124E+01
DAV:   4    -0.174877460856E+03   -0.82054E-01   -0.19652E+01  2176   0.317E+01    0.820E+00
DAV:   5    -0.174647262397E+03    0.23020E+00   -0.49331E+00  1912   0.198E+01    0.645E+00
DAV:   6    -0.174522111363E+03    0.12515E+00   -0.23022E+00  1968   0.142E+01    0.492E+00
DAV:   7    -0.174385122006E+03    0.13699E+00   -0.14774E+00  2128   0.104E+01    0.290E+00
DAV:   8    -0.174354701573E+03    0.30420E-01   -0.49059E-01  2152   0.500E+00    0.235E+00
DAV:   9    -0.174340199681E+03    0.14502E-01   -0.87165E-02  2080   0.287E+00    0.183E+00
DAV:  10    -0.174328906824E+03    0.11293E-01   -0.33307E-02  2064   0.171E+00    0.128E+00
DAV:  11    -0.174325124831E+03    0.37820E-02   -0.28258E-02  2176   0.121E+00    0.856E-01
DAV:  12    -0.174321194812E+03    0.39300E-02   -0.20261E-02  2104   0.978E-01    0.354E-01
DAV:  13    -0.174321275985E+03   -0.81173E-04   -0.28667E-03  1800   0.383E-01    0.310E-01
DAV:  14    -0.174321036242E+03    0.23974E-03   -0.97387E-04  2128   0.253E-01    0.229E-01
DAV:  15    -0.174320921511E+03    0.11473E-03   -0.68918E-04  2176   0.189E-01    0.145E-01
DAV:  16    -0.174320794611E+03    0.12690E-03   -0.67542E-04  2104   0.177E-01    0.458E-02
DAV:  17    -0.174320792286E+03    0.23255E-05   -0.15289E-04  1760   0.832E-02    0.265E-02
DAV:  18    -0.174320783878E+03    0.84077E-05   -0.39862E-05  1008   0.543E-02
   9 F= -.17432078E+03 E0= -.17425738E+03  d E =-.816105E+00
 trial-energy change:   -0.816105  1 .order   -0.741343   -1.305098   -0.177587
 step:   1.0238(harm=  1.0683)  dis= 0.12425  next Energy=  -174.330585 (dE=-0.826E+00)
 bond charge predicted
       N       E                     dE             d eps       ncg     rms          rms(c)
DAV:   1    -0.174344722332E+03   -0.23930E-01   -0.23841E+00  1088   0.740E+00    0.169E+00
DAV:   2    -0.174793695315E+03   -0.44897E+00   -0.27890E+00  2160   0.152E+01    0.821E+00
DAV:   3    -0.174324798693E+03    0.46890E+00   -0.21134E+00  2168   0.132E+01    0.721E-01
DAV:   4    -0.174340755697E+03   -0.15957E-01   -0.24164E-01  1912   0.327E+00    0.108E+00
DAV:   5    -0.174332769848E+03    0.79858E-02   -0.63878E-02  1952   0.233E+00    0.600E-01
DAV:   6    -0.174331908219E+03    0.86163E-03   -0.29167E-02  2008   0.143E+00    0.528E-01
DAV:   7    -0.174330351542E+03    0.15567E-02   -0.11399E-02  2072   0.101E+00    0.255E-01
DAV:   8    -0.174329850430E+03    0.50111E-03   -0.48731E-03  2152   0.539E-01    0.870E-02
DAV:   9    -0.174330033943E+03   -0.18351E-03   -0.18491E-03  2128   0.359E-01    0.176E-01
DAV:  10    -0.174329802491E+03    0.23145E-03   -0.12169E-03  2128   0.311E-01    0.376E-02
DAV:  11    -0.174329799560E+03    0.29304E-05   -0.18359E-04  1752   0.107E-01    0.261E-02
DAV:  12    -0.174329793911E+03    0.56489E-05   -0.29076E-05   888   0.567E-02
  10 F= -.17432979E+03 E0= -.17426562E+03  d E =-.825115E+00
 curvature:  -1.17 expect dE=-0.139E+01 dE for cont linesearch -0.779E-04
 trial: gam= 0.43356 g(F)=  0.828E+00 g(S)=  0.363E+00 ort = 0.151E-01 (trialstep = 0.943E+00)
 search vector abs. value=  0.185E+01
 bond charge predicted
       N       E                     dE             d eps       ncg     rms          rms(c)
DAV:   1    -0.175043446735E+03   -0.71365E+00   -0.14362E+02  1088   0.469E+01    0.363E+00
DAV:   2    -0.176070589301E+03   -0.10271E+01   -0.10409E+01  2072   0.204E+01    0.980E+00
DAV:   3    -0.175272885542E+03    0.79770E+00   -0.47379E+00  2064   0.197E+01    0.304E+00
DAV:   4    -0.175287743271E+03   -0.14858E-01   -0.12135E+00  1960   0.872E+00    0.288E+00
DAV:   5    -0.175197991084E+03    0.89752E-01   -0.68603E-01  2152   0.642E+00    0.159E+00
DAV:   6    -0.175208910960E+03   -0.10920E-01   -0.41278E-01  2128   0.554E+00    0.203E+00
DAV:   7    -0.175188084576E+03    0.20826E-01   -0.19498E-01  2112   0.427E+00    0.124E+00
DAV:   8    -0.175175007103E+03    0.13077E-01   -0.67601E-02  2112   0.227E+00    0.284E-01
DAV:   9    -0.175175505243E+03   -0.49814E-03   -0.13471E-02  2136   0.899E-01    0.333E-01
DAV:  10    -0.175174878015E+03    0.62723E-03   -0.51023E-03  2072   0.657E-01    0.158E-01
DAV:  11    -0.175174723177E+03    0.15484E-03   -0.24962E-03  2120   0.393E-01    0.905E-02
DAV:  12    -0.175174715790E+03    0.73869E-05   -0.64795E-04  2080   0.197E-01    0.658E-02
DAV:  13    -0.175174671390E+03    0.44400E-04   -0.35623E-04  1928   0.137E-01    0.199E-02
DAV:  14    -0.175174675955E+03   -0.45656E-05   -0.59786E-05  1208   0.651E-02
  11 F= -.17517468E+03 E0= -.17511188E+03  d E =-.844882E+00
 trial-energy change:   -0.844882  1 .order   -0.834233   -1.129511   -0.538955
 step:   1.6658(harm=  1.8039)  dis= 0.18925  next Energy=  -175.385943 (dE=-0.106E+01)
 bond charge predicted
       N       E                     dE             d eps       ncg     rms          rms(c)
DAV:   1    -0.175341352897E+03   -0.16668E+00   -0.83249E+01  1088   0.349E+01    0.276E+00
DAV:   2    -0.175945790408E+03   -0.60444E+00   -0.58037E+00  2120   0.155E+01    0.803E+00
DAV:   3    -0.175456868176E+03    0.48892E+00   -0.27585E+00  2104   0.151E+01    0.223E+00
DAV:   4    -0.175476568265E+03   -0.19700E-01   -0.80399E-01  1952   0.686E+00    0.242E+00
DAV:   5    -0.175418776559E+03    0.57792E-01   -0.49110E-01  2144   0.532E+00    0.150E+00
DAV:   6    -0.175416789569E+03    0.19870E-02   -0.22136E-01  2096   0.409E+00    0.150E+00
DAV:   7    -0.175412795089E+03    0.39945E-02   -0.12424E-01  2072   0.326E+00    0.112E+00
DAV:   8    -0.175400949401E+03    0.11846E-01   -0.67637E-02  2096   0.193E+00    0.211E-01
DAV:   9    -0.175401294008E+03   -0.34461E-03   -0.95717E-03  1992   0.702E-01    0.242E-01
DAV:  10    -0.175400861913E+03    0.43210E-03   -0.33147E-03  2048   0.493E-01    0.118E-01
DAV:  11    -0.175400782389E+03    0.79524E-04   -0.10823E-03  2152   0.282E-01    0.678E-02
DAV:  12    -0.175400778087E+03    0.43014E-05   -0.30624E-04  2024   0.144E-01    0.480E-02
DAV:  13    -0.175400758600E+03    0.19487E-04   -0.23240E-04  1768   0.107E-01    0.234E-02
DAV:  14    -0.175400760642E+03   -0.20419E-05   -0.47455E-05  1040   0.691E-02
  12 F= -.17540076E+03 E0= -.17533473E+03  d E =-.107097E+01
 curvature:  -1.35 expect dE=-0.107E+01 dE for cont linesearch -0.201E-02
 trial: gam= 0.38825 g(F)=  0.452E+00 g(S)=  0.338E+00 ort = 0.524E-01 (trialstep = 0.109E+01)
 search vector abs. value=  0.111E+01
 bond charge predicted
       N       E                     dE             d eps       ncg     rms          rms(c)
DAV:   1    -0.176501263002E+03   -0.11005E+01   -0.10105E+02  1088   0.400E+01    0.103E+01
DAV:   2    -0.193311545285E+03   -0.16810E+02   -0.10099E+02  2112   0.958E+01    0.452E+01
DAV:   3    -0.176191945232E+03    0.17120E+02   -0.61923E+01  2112   0.658E+01    0.977E+00
DAV:   4    -0.176196243202E+03   -0.42980E-02   -0.10006E+01  2096   0.212E+01    0.454E+00
DAV:   5    -0.176176621731E+03    0.19621E-01   -0.17149E+00  1904   0.131E+01    0.414E+00
DAV:   6    -0.176093118919E+03    0.83503E-01   -0.79619E-01  1896   0.850E+00    0.282E+00
DAV:   7    -0.176057569365E+03    0.35550E-01   -0.45533E-01  2120   0.566E+00    0.169E+00
DAV:   8    -0.176049977608E+03    0.75918E-02   -0.20140E-01  2160   0.343E+00    0.165E+00
DAV:   9    -0.176047527149E+03    0.24505E-02   -0.66382E-02  2096   0.251E+00    0.151E+00
DAV:  10    -0.176036658287E+03    0.10869E-01   -0.32936E-02  2112   0.166E+00    0.778E-01
DAV:  11    -0.176035916929E+03    0.74136E-03   -0.13842E-02  1856   0.794E-01    0.593E-01
DAV:  12    -0.176034030588E+03    0.18863E-02   -0.79690E-03  2176   0.681E-01    0.230E-01
DAV:  13    -0.176033971350E+03    0.59238E-04   -0.18506E-03  1792   0.306E-01    0.184E-01
DAV:  14    -0.176033924280E+03    0.47069E-04   -0.33410E-04  1968   0.151E-01    0.145E-01
DAV:  15    -0.176033901788E+03    0.22493E-04   -0.22858E-04  1808   0.107E-01    0.124E-01
DAV:  16    -0.176033820754E+03    0.81034E-04   -0.29330E-04  2136   0.130E-01    0.379E-02
DAV:  17    -0.176033813648E+03    0.71052E-05   -0.54974E-05  1240   0.542E-02
  13 F= -.17603381E+03 E0= -.17597152E+03  d E =-.633053E+00
 trial-energy change:   -0.633053  1 .order   -0.624642   -0.881448   -0.367836
 step:   1.7598(harm=  1.8666)  dis= 0.11657  next Energy=  -176.149449 (dE=-0.749E+00)
 bond charge predicted
       N       E                     dE             d eps       ncg     rms          rms(c)
DAV:   1    -0.176316093775E+03   -0.28227E+00   -0.38829E+01  1088   0.256E+01    0.646E+00
DAV:   2    -0.183673822165E+03   -0.73577E+01   -0.42054E+01  2112   0.616E+01    0.317E+01
DAV:   3    -0.176074828844E+03    0.75990E+01   -0.27722E+01  2176   0.507E+01    0.448E+00
DAV:   4    -0.176206128236E+03   -0.13130E+00   -0.38422E+00  1744   0.123E+01    0.253E+00
DAV:   5    -0.176194495456E+03    0.11633E-01   -0.56604E-01  1896   0.693E+00    0.240E+00
DAV:   6    -0.176180402603E+03    0.14093E-01   -0.29714E-01  1904   0.559E+00    0.219E+00
DAV:   7    -0.176159492691E+03    0.20910E-01   -0.18501E-01  2064   0.398E+00    0.100E+00
DAV:   8    -0.176152015029E+03    0.74777E-02   -0.94427E-02  2152   0.230E+00    0.715E-01
DAV:   9    -0.176152648011E+03   -0.63298E-03   -0.21506E-02  1984   0.139E+00    0.749E-01
DAV:  10    -0.176149497307E+03    0.31507E-02   -0.12536E-02  1984   0.116E+00    0.355E-01
DAV:  11    -0.176149463285E+03    0.34023E-04   -0.55171E-03  2136   0.583E-01    0.290E-01
DAV:  12    -0.176148932179E+03    0.53111E-03   -0.29170E-03  2176   0.433E-01    0.113E-01
DAV:  13    -0.176148901360E+03    0.30819E-04   -0.55167E-04  1768   0.173E-01    0.845E-02
DAV:  14    -0.176148894576E+03    0.67840E-05   -0.91682E-05  1416   0.800E-02
  14 F= -.17614889E+03 E0= -.17608828E+03  d E =-.748134E+00
 curvature:  -1.25 expect dE=-0.183E+01 dE for cont linesearch -0.170E-08
 trial: gam= 1.89073 g(F)=  0.336E+00 g(S)=  0.112E+01 ort =-0.388E-04 (trialstep = 0.250E+00)
 search vector abs. value=  0.542E+01
 bond charge predicted
       N       E                     dE             d eps       ncg     rms          rms(c)
DAV:   1    -0.176469811721E+03   -0.32091E+00   -0.27994E+01  1088   0.224E+01    0.357E+00
DAV:   2    -0.179023189871E+03   -0.25534E+01   -0.13529E+01  2152   0.341E+01    0.203E+01
DAV:   3    -0.176473199526E+03    0.25500E+01   -0.89343E+00  2104   0.253E+01    0.265E+00
DAV:   4    -0.176482576715E+03   -0.93772E-02   -0.82414E-01  1952   0.737E+00    0.195E+00
DAV:   5    -0.176478144161E+03    0.44326E-02   -0.25395E-01  1856   0.519E+00    0.149E+00
DAV:   6    -0.176458232422E+03    0.19912E-01   -0.18432E-01  1960   0.368E+00    0.758E-01
DAV:   7    -0.176464485815E+03   -0.62534E-02   -0.96845E-02  2176   0.244E+00    0.120E+00
DAV:   8    -0.176453733288E+03    0.10753E-01   -0.60494E-02  2144   0.215E+00    0.427E-01
DAV:   9    -0.176452889043E+03    0.84425E-03   -0.12350E-02  2072   0.101E+00    0.221E-01
DAV:  10    -0.176452617765E+03    0.27128E-03   -0.36010E-03  1984   0.468E-01    0.119E-01
DAV:  11    -0.176452478583E+03    0.13918E-03   -0.13416E-03  1888   0.273E-01    0.424E-02
DAV:  12    -0.176452501444E+03   -0.22861E-04   -0.35479E-04  1912   0.143E-01    0.526E-02
DAV:  13    -0.176452472391E+03    0.29053E-04   -0.20201E-04  1720   0.106E-01    0.142E-02
DAV:  14    -0.176452476242E+03   -0.38507E-05   -0.34418E-05   888   0.494E-02
  15 F= -.17645248E+03 E0= -.17639054E+03  d E =-.303582E+00
 ZBRENT: can't locate minimum, use default step
 trial-energy change:   -0.303582  1 .order   -0.305466   -0.364301   -0.246630
 step:   0.9999(harm=  0.7739)  dis= 0.15724  next Energy=  -176.829325 (dE=-0.680E+00)
 bond charge predicted
       N       E                     dE             d eps       ncg     rms          rms(c)
DAV:   1    -0.176727226085E+03   -0.27475E+00   -0.26811E+02  1112   0.760E+01    0.106E+01
DAV:   2    -0.196521052514E+03   -0.19794E+02   -0.12170E+02  2048   0.100E+02    0.498E+01
DAV:   3    -0.176632516581E+03    0.19889E+02   -0.57555E+01  2080   0.540E+01    0.640E+00
DAV:   4    -0.177237672428E+03   -0.60516E+00   -0.10113E+01  2168   0.230E+01    0.866E+00
DAV:   5    -0.176865984713E+03    0.37169E+00   -0.27589E+00  2064   0.165E+01    0.426E+00
DAV:   6    -0.176751298276E+03    0.11469E+00   -0.14798E+00  2112   0.953E+00    0.234E+00
DAV:   7    -0.176740889934E+03    0.10408E-01   -0.64435E-01  2048   0.582E+00    0.238E+00
DAV:   8    -0.176677838619E+03    0.63051E-01   -0.50546E-01  1800   0.486E+00    0.691E-01
DAV:   9    -0.176682886509E+03   -0.50479E-02   -0.80904E-02  2016   0.225E+00    0.977E-01
DAV:  10    -0.176676237627E+03    0.66489E-02   -0.38186E-02  2032   0.176E+00    0.416E-01
DAV:  11    -0.176676140724E+03    0.96903E-04   -0.11488E-02  2080   0.997E-01    0.344E-01
DAV:  12    -0.176675339476E+03    0.80125E-03   -0.75219E-03  2000   0.659E-01    0.144E-01
DAV:  13    -0.176675331034E+03    0.84414E-05   -0.23195E-03  1728   0.328E-01    0.131E-01
DAV:  14    -0.176675186668E+03    0.14437E-03   -0.88285E-04  2072   0.224E-01    0.389E-02
DAV:  15    -0.176675185734E+03    0.93407E-06   -0.20507E-04  1760   0.108E-01    0.326E-02
DAV:  16    -0.176675180838E+03    0.48959E-05   -0.60622E-05  1256   0.656E-02
  16 F= -.17667518E+03 E0= -.17661230E+03  d E =-.526286E+00
 curvature:  -1.17 expect dE=-0.739E+00 dE for cont linesearch -0.328E-01
 ZBRENT: interpolating
 opt :   0.7875  next Energy=  -176.716563 (dE=-0.568E+00)
 bond charge predicted
       N       E                     dE             d eps       ncg     rms          rms(c)
DAV:   1    -0.176742977454E+03   -0.67792E-01   -0.19399E+01  1088   0.171E+01    0.321E+00
DAV:   2    -0.178951675814E+03   -0.22087E+01   -0.10786E+01  2112   0.304E+01    0.184E+01
DAV:   3    -0.176705391273E+03    0.22463E+01   -0.73771E+00  2176   0.272E+01    0.191E+00
DAV:   4    -0.176739516452E+03   -0.34125E-01   -0.81260E-01  2016   0.643E+00    0.171E+00
DAV:   5    -0.176736694672E+03    0.28218E-02   -0.18033E-01  1856   0.431E+00    0.153E+00
DAV:   6    -0.176720745191E+03    0.15949E-01   -0.12039E-01  1920   0.319E+00    0.818E-01
DAV:   7    -0.176722300516E+03   -0.15553E-02   -0.53116E-02  2144   0.205E+00    0.962E-01
DAV:   8    -0.176716247932E+03    0.60526E-02   -0.31807E-02  2112   0.165E+00    0.288E-01
DAV:   9    -0.176716200505E+03    0.47427E-04   -0.87614E-03  2136   0.798E-01    0.285E-01
DAV:  10    -0.176715786364E+03    0.41414E-03   -0.42084E-03  2144   0.541E-01    0.145E-01
DAV:  11    -0.176715623824E+03    0.16254E-03   -0.18904E-03  1992   0.325E-01    0.631E-02
DAV:  12    -0.176715621218E+03    0.26058E-05   -0.43409E-04  2088   0.161E-01    0.538E-02
DAV:  13    -0.176715594914E+03    0.26305E-04   -0.19195E-04  1720   0.102E-01    0.301E-02
DAV:  14    -0.176715594041E+03    0.87308E-06   -0.32824E-05   896   0.504E-02
  17 F= -.17671559E+03 E0= -.17665302E+03  d E =-.566699E+00
 curvature:  -1.48 expect dE=-0.730E+00 dE for cont linesearch -0.485E-06
 trial: gam= 0.12853 g(F)=  0.298E+00 g(S)=  0.196E+00 ort =-0.133E-02 (trialstep = 0.357E+00)
 search vector abs. value=  0.584E+00
 bond charge predicted
       N       E                     dE             d eps       ncg     rms          rms(c)
DAV:   1    -0.176880818412E+03   -0.16522E+00   -0.45048E+00  1088   0.780E+00    0.976E-01
DAV:   2    -0.176986714138E+03   -0.10590E+00   -0.74918E-01  2128   0.718E+00    0.379E+00
DAV:   3    -0.176886370218E+03    0.10034E+00   -0.48731E-01  2120   0.619E+00    0.117E+00
DAV:   4    -0.176880748338E+03    0.56219E-02   -0.86622E-02  2152   0.246E+00    0.614E-01
DAV:   5    -0.176880204828E+03    0.54351E-03   -0.41408E-02  2144   0.169E+00    0.718E-01
DAV:   6    -0.176876370379E+03    0.38344E-02   -0.28296E-02  2144   0.160E+00    0.326E-01
DAV:   7    -0.176877006642E+03   -0.63626E-03   -0.13325E-02  2048   0.100E+00    0.403E-01
DAV:   8    -0.176875663562E+03    0.13431E-02   -0.79043E-03  2048   0.715E-01    0.122E-01
DAV:   9    -0.176875597587E+03    0.65975E-04   -0.74181E-04  1920   0.272E-01    0.620E-02
DAV:  10    -0.176875619459E+03   -0.21873E-04   -0.45496E-04  2096   0.177E-01    0.673E-02
DAV:  11    -0.176875572331E+03    0.47129E-04   -0.27952E-04  1800   0.120E-01    0.120E-02
DAV:  12    -0.176875574189E+03   -0.18587E-05   -0.34036E-05   936   0.495E-02
  18 F= -.17687557E+03 E0= -.17681492E+03  d E =-.159980E+00
 ZBRENT: can't locate minimum, use default step
 trial-energy change:   -0.159980  1 .order   -0.160075   -0.176649   -0.143502
 step:   1.4299(harm=  1.9051)  dis= 0.08244  next Energy=  -177.186293 (dE=-0.471E+00)
 bond charge predicted
       N       E                     dE             d eps       ncg     rms          rms(c)
DAV:   1    -0.177189932361E+03   -0.31436E+00   -0.40568E+01  1088   0.237E+01    0.288E+00
DAV:   2    -0.178068221000E+03   -0.87829E+00   -0.63147E+00  2088   0.208E+01    0.110E+01
DAV:   3    -0.177240316507E+03    0.82790E+00   -0.37878E+00  2112   0.170E+01    0.342E+00
DAV:   4    -0.177196642426E+03    0.43674E-01   -0.80669E-01  2160   0.717E+00    0.182E+00
DAV:   5    -0.177178410884E+03    0.18232E-01   -0.33340E-01  2096   0.453E+00    0.164E+00
DAV:   6    -0.177156882475E+03    0.21528E-01   -0.21543E-01  2120   0.405E+00    0.916E-01
DAV:   7    -0.177162351343E+03   -0.54689E-02   -0.99905E-02  2064   0.284E+00    0.120E+00
DAV:   8    -0.177150309587E+03    0.12042E-01   -0.62413E-02  2064   0.200E+00    0.202E-01
DAV:   9    -0.177150569224E+03   -0.25964E-03   -0.83429E-03  2072   0.717E-01    0.223E-01
DAV:  10    -0.177150381023E+03    0.18820E-03   -0.30090E-03  2040   0.539E-01    0.202E-01
DAV:  11    -0.177150115362E+03    0.26566E-03   -0.12789E-03  2032   0.339E-01    0.437E-02
DAV:  12    -0.177150130622E+03   -0.15261E-04   -0.28108E-04  1888   0.134E-01    0.431E-02
DAV:  13    -0.177150109875E+03    0.20747E-04   -0.15481E-04  1608   0.994E-02    0.150E-02
DAV:  14    -0.177150114467E+03   -0.45921E-05   -0.52118E-05  1168   0.564E-02
  19 F= -.17715011E+03 E0= -.17709381E+03  d E =-.434520E+00
 curvature:  -1.02 expect dE=-0.249E+00 dE for cont linesearch -0.196E-01
 ZBRENT: extrapolating
 opt :   1.8146  next Energy=  -177.170493 (dE=-0.455E+00)
 bond charge predicted
       N       E                     dE             d eps       ncg     rms          rms(c)
DAV:   1    -0.177176264257E+03   -0.26154E-01   -0.51623E+00  1088   0.830E+00    0.100E+00
DAV:   2    -0.177276319647E+03   -0.10006E+00   -0.70536E-01  2112   0.695E+00    0.377E+00
DAV:   3    -0.177181318273E+03    0.95001E-01   -0.44643E-01  2112   0.597E+00    0.110E+00
DAV:   4    -0.177177656794E+03    0.36615E-02   -0.94820E-02  2160   0.246E+00    0.667E-01
DAV:   5    -0.177174558820E+03    0.30980E-02   -0.43024E-02  2112   0.165E+00    0.580E-01
DAV:   6    -0.177172005288E+03    0.25535E-02   -0.23940E-02  2136   0.138E+00    0.314E-01
DAV:   7    -0.177172433769E+03   -0.42848E-03   -0.10107E-02  2080   0.910E-01    0.365E-01
DAV:   8    -0.177171247345E+03    0.11864E-02   -0.61794E-03  2080   0.624E-01    0.620E-02
DAV:   9    -0.177171279874E+03   -0.32529E-04   -0.95015E-04  1800   0.221E-01    0.691E-02
DAV:  10    -0.177171236372E+03    0.43501E-04   -0.32044E-04  2024   0.149E-01    0.339E-02
DAV:  11    -0.177171229132E+03    0.72404E-05   -0.64882E-05  1384   0.752E-02
  20 F= -.17717123E+03 E0= -.17711611E+03  d E =-.455635E+00
 curvature:  -1.06 expect dE=-0.349E+00 dE for cont linesearch -0.381E-04
 trial: gam= 0.62933 g(F)=  0.870E-01 g(S)=  0.243E+00 ort =-0.458E-02 (trialstep = 0.649E+00)
 search vector abs. value=  0.555E+00
 bond charge predicted
       N       E                     dE             d eps       ncg     rms          rms(c)
DAV:   1    -0.177604752912E+03   -0.43352E+00   -0.18461E+01  1144   0.247E+01    0.805E+00
DAV:   2    -0.188926251873E+03   -0.11321E+02   -0.52807E+01  2120   0.726E+01    0.388E+01
DAV:   3    -0.177286699162E+03    0.11640E+02   -0.38548E+01  2160   0.558E+01    0.624E+00
DAV:   4    -0.177344306501E+03   -0.57607E-01   -0.59994E+00  1832   0.156E+01    0.289E+00
DAV:   5    -0.177343379726E+03    0.92677E-03   -0.84585E-01  1920   0.812E+00    0.306E+00
DAV:   6    -0.177308234638E+03    0.35145E-01   -0.31600E-01  1912   0.578E+00    0.237E+00
DAV:   7    -0.177291590506E+03    0.16644E-01   -0.20151E-01  2080   0.401E+00    0.128E+00
DAV:   8    -0.177280685073E+03    0.10905E-01   -0.99442E-02  2112   0.241E+00    0.799E-01
DAV:   9    -0.177281797883E+03   -0.11128E-02   -0.19737E-02  1944   0.132E+00    0.877E-01
DAV:  10    -0.177279127933E+03    0.26699E-02   -0.88752E-03  1952   0.983E-01    0.601E-01
DAV:  11    -0.177278531847E+03    0.59609E-03   -0.63281E-03  2104   0.637E-01    0.470E-01
DAV:  12    -0.177277332810E+03    0.11990E-02   -0.43353E-03  2176   0.507E-01    0.170E-01
DAV:  13    -0.177277321090E+03    0.11720E-04   -0.60184E-04  1744   0.186E-01    0.141E-01
DAV:  14    -0.177277274996E+03    0.46094E-04   -0.15200E-04  1736   0.991E-02    0.970E-02
DAV:  15    -0.177277254277E+03    0.20719E-04   -0.11387E-04  1664   0.766E-02    0.714E-02
DAV:  16    -0.177277221955E+03    0.32322E-04   -0.87072E-05  1560   0.721E-02    0.249E-02
DAV:  17    -0.177277218957E+03    0.29976E-05   -0.18158E-05   768   0.355E-02
  21 F= -.17727722E+03 E0= -.17722677E+03  d E =-.105990E+00
 trial-energy change:   -0.105990  1 .order   -0.103692   -0.212236    0.004852
 step:   0.6352(harm=  0.6344)  dis= 0.03552  next Energy=  -177.277270 (dE=-0.106E+00)
 bond charge predicted
       N       E                     dE             d eps       ncg     rms          rms(c)
DAV:   1    -0.177277394117E+03   -0.17216E-03   -0.83300E-03  1160   0.541E-01    0.175E-01
DAV:   2    -0.177284500689E+03   -0.71066E-02   -0.32940E-02  2176   0.163E+00    0.112E+00
DAV:   3    -0.177277247056E+03    0.72536E-02   -0.25253E-02  2176   0.142E+00    0.110E-01
DAV:   4    -0.177277270964E+03   -0.23908E-04   -0.17884E-03  1856   0.339E-01    0.798E-02
DAV:   5    -0.177277272179E+03   -0.12154E-05   -0.44378E-04  1856   0.215E-01    0.670E-02
DAV:   6    -0.177277237481E+03    0.34698E-04   -0.20826E-04  1832   0.123E-01    0.272E-02
DAV:   7    -0.177277233304E+03    0.41769E-05   -0.23096E-05   776   0.498E-02
  22 F= -.17727723E+03 E0= -.17722670E+03  d E =-.106004E+00
 curvature:  -0.54 expect dE=-0.880E-01 dE for cont linesearch -0.902E-07
 trial: gam= 0.44786 g(F)=  0.670E-01 g(S)=  0.970E-01 ort = 0.305E-03 (trialstep = 0.646E+00)
 search vector abs. value=  0.276E+00
 bond charge predicted
       N       E                     dE             d eps       ncg     rms          rms(c)
DAV:   1    -0.177363632946E+03   -0.86395E-01   -0.86079E+00  1088   0.111E+01    0.139E+00
DAV:   2    -0.177726265244E+03   -0.36263E+00   -0.18751E+00  2160   0.123E+01    0.762E+00
DAV:   3    -0.177366648116E+03    0.35962E+00   -0.11106E+00  2152   0.991E+00    0.844E-01
DAV:   4    -0.177375445069E+03   -0.87970E-02   -0.13098E-01  1952   0.308E+00    0.126E+00
DAV:   5    -0.177366828228E+03    0.86168E-02   -0.59908E-02  1920   0.265E+00    0.623E-01
DAV:   6    -0.177364284815E+03    0.25434E-02   -0.50160E-02  1988   0.166E+00    0.444E-01
DAV:   7    -0.177363196989E+03    0.10878E-02   -0.14123E-02  2096   0.942E-01    0.256E-01
DAV:   8    -0.177362415192E+03    0.78180E-03   -0.56737E-03  2064   0.535E-01    0.834E-02
DAV:   9    -0.177362564835E+03   -0.14964E-03   -0.13293E-03  2008   0.333E-01    0.162E-01
DAV:  10    -0.177362385201E+03    0.17963E-03   -0.78692E-04  2016   0.290E-01    0.421E-02
DAV:  11    -0.177362378789E+03    0.64117E-05   -0.16609E-04  1752   0.102E-01    0.238E-02
DAV:  12    -0.177362372940E+03    0.58491E-05   -0.21094E-05   784   0.515E-02
  23 F= -.17736237E+03 E0= -.17731461E+03  d E =-.851396E-01
 trial-energy change:   -0.085140  1 .order   -0.085116   -0.106045   -0.064187
 step:   1.6370(harm=  1.6370)  dis= 0.05832  next Energy=  -177.411563 (dE=-0.134E+00)
 bond charge predicted
       N       E                     dE             d eps       ncg     rms          rms(c)
DAV:   1    -0.177413638412E+03   -0.51260E-01   -0.20320E+01  1088   0.172E+01    0.215E+00
DAV:   2    -0.178273795609E+03   -0.86016E+00   -0.44807E+00  2168   0.191E+01    0.116E+01
DAV:   3    -0.177418584691E+03    0.85521E+00   -0.26206E+00  2136   0.150E+01    0.122E+00
DAV:   4    -0.177445346878E+03   -0.26762E-01   -0.32770E-01  2000   0.482E+00    0.209E+00
DAV:   5    -0.177419548149E+03    0.25799E-01   -0.14558E-01  1944   0.413E+00    0.881E-01
DAV:   6    -0.177415251015E+03    0.42971E-02   -0.11370E-01  1984   0.243E+00    0.698E-01
DAV:   7    -0.177412247513E+03    0.30035E-02   -0.31099E-02  2144   0.142E+00    0.378E-01
DAV:   8    -0.177410745320E+03    0.15022E-02   -0.11641E-02  2112   0.784E-01    0.138E-01
DAV:   9    -0.177411153355E+03   -0.40804E-03   -0.34023E-03  2032   0.553E-01    0.275E-01
DAV:  10    -0.177410636700E+03    0.51666E-03   -0.21560E-03  2032   0.478E-01    0.638E-02
DAV:  11    -0.177410620808E+03    0.15892E-04   -0.42995E-04  1784   0.155E-01    0.352E-02
DAV:  12    -0.177410610242E+03    0.10565E-04   -0.71087E-05  1288   0.749E-02    0.160E-02
DAV:  13    -0.177410611208E+03   -0.96529E-06   -0.26129E-05   768   0.447E-02
  24 F= -.17741061E+03 E0= -.17736525E+03  d E =-.133378E+00
 curvature:  -1.37 expect dE=-0.483E-01 dE for cont linesearch -0.181E-04
 trial: gam= 0.17200 g(F)=  0.253E-01 g(S)=  0.984E-02 ort =-0.191E-02 (trialstep = 0.844E+00)
 search vector abs. value=  0.427E-01
 bond charge predicted
       N       E                     dE             d eps       ncg     rms          rms(c)
DAV:   1    -0.177436208090E+03   -0.25598E-01   -0.20176E+00  1088   0.536E+00    0.808E-01
DAV:   2    -0.177534725527E+03   -0.98517E-01   -0.59225E-01  2160   0.682E+00    0.384E+00
DAV:   3    -0.177436318504E+03    0.98407E-01   -0.37769E-01  2152   0.564E+00    0.670E-01
DAV:   4    -0.177436061533E+03    0.25697E-03   -0.44327E-02  2080   0.173E+00    0.548E-01
DAV:   5    -0.177437068213E+03   -0.10067E-02   -0.24103E-02  2016   0.160E+00    0.694E-01
DAV:   6    -0.177433442313E+03    0.36259E-02   -0.20721E-02  2016   0.128E+00    0.182E-01
DAV:   7    -0.177433735963E+03   -0.29365E-03   -0.68807E-03  1896   0.612E-01    0.212E-01
DAV:   8    -0.177433168314E+03    0.56765E-03   -0.32038E-03  2080   0.444E-01    0.534E-02
DAV:   9    -0.177433184715E+03   -0.16401E-04   -0.48519E-04  2072   0.176E-01    0.711E-02
DAV:  10    -0.177433164843E+03    0.19873E-04   -0.20891E-04  1936   0.152E-01    0.458E-02
DAV:  11    -0.177433148465E+03    0.16377E-04   -0.10148E-04  1648   0.888E-02    0.139E-02
DAV:  12    -0.177433148193E+03    0.27276E-06   -0.16293E-05   720   0.389E-02
  25 F= -.17743315E+03 E0= -.17738744E+03  d E =-.225370E-01
 trial-energy change:   -0.022537  1 .order   -0.022596   -0.029418   -0.015773
 step:   1.8798(harm=  1.8204)  dis= 0.02003  next Energy=  -177.442712 (dE=-0.321E-01)
 bond charge predicted
       N       E                     dE             d eps       ncg     rms          rms(c)
DAV:   1    -0.177446965067E+03   -0.13817E-01   -0.30347E+00  1088   0.658E+00    0.993E-01
DAV:   2    -0.177597392879E+03   -0.15043E+00   -0.89581E-01  2160   0.838E+00    0.473E+00
DAV:   3    -0.177447058479E+03    0.15033E+00   -0.57137E-01  2152   0.693E+00    0.829E-01
DAV:   4    -0.177446609732E+03    0.44875E-03   -0.66875E-02  2080   0.213E+00    0.669E-01
DAV:   5    -0.177448223904E+03   -0.16142E-02   -0.36535E-02  2016   0.196E+00    0.858E-01
DAV:   6    -0.177442667331E+03    0.55566E-02   -0.31129E-02  2016   0.157E+00    0.222E-01
DAV:   7    -0.177443092426E+03   -0.42509E-03   -0.10028E-02  1896   0.738E-01    0.256E-01
DAV:   8    -0.177442272574E+03    0.81985E-03   -0.46320E-03  2064   0.535E-01    0.665E-02
DAV:   9    -0.177442299497E+03   -0.26922E-04   -0.74102E-04  2072   0.219E-01    0.903E-02
DAV:  10    -0.177442266695E+03    0.32802E-04   -0.32602E-04  1984   0.189E-01    0.563E-02
DAV:  11    -0.177442242384E+03    0.24311E-04   -0.16437E-04  1928   0.107E-01    0.175E-02
DAV:  12    -0.177442241246E+03    0.11383E-05   -0.20519E-05   832   0.453E-02
  26 F= -.17744224E+03 E0= -.17739557E+03  d E =-.316300E-01
 curvature:  -1.11 expect dE=-0.353E-01 dE for cont linesearch -0.210E-04
 trial: gam= 0.91124 g(F)=  0.519E-02 g(S)=  0.266E-01 ort =-0.899E-03 (trialstep = 0.684E+00)
 search vector abs. value=  0.656E-01
 bond charge predicted
       N       E                     dE             d eps       ncg     rms          rms(c)
DAV:   1    -0.177491852489E+03   -0.49610E-01   -0.24243E+00  1112   0.891E+00    0.292E+00
DAV:   2    -0.179483022673E+03   -0.19912E+01   -0.86937E+00  2176   0.277E+01    0.180E+01
DAV:   3    -0.177437835611E+03    0.20452E+01   -0.66844E+00  2176   0.253E+01    0.172E+00
DAV:   4    -0.177461845425E+03   -0.24010E-01   -0.66187E-01  1968   0.577E+00    0.131E+00
DAV:   5    -0.177459962207E+03    0.18832E-02   -0.90843E-02  1776   0.319E+00    0.111E+00
DAV:   6    -0.177452837342E+03    0.71249E-02   -0.43750E-02  1824   0.195E+00    0.599E-01
DAV:   7    -0.177451389975E+03    0.14474E-02   -0.13140E-02  2120   0.918E-01    0.281E-01
DAV:   8    -0.177450844561E+03    0.54541E-03   -0.61910E-03  2144   0.551E-01    0.132E-01
DAV:   9    -0.177451078291E+03   -0.23373E-03   -0.21193E-03  2000   0.468E-01    0.225E-01
DAV:  10    -0.177450729364E+03    0.34893E-03   -0.15014E-03  2000   0.394E-01    0.428E-02
DAV:  11    -0.177450757326E+03   -0.27962E-04   -0.58239E-04  1752   0.162E-01    0.580E-02
DAV:  12    -0.177450723950E+03    0.33376E-04   -0.23108E-04  1752   0.116E-01    0.259E-02
DAV:  13    -0.177450721928E+03    0.20218E-05   -0.25683E-05   760   0.473E-02
  27 F= -.17745072E+03 E0= -.17740419E+03  d E =-.848068E-02
 trial-energy change:   -0.008481  1 .order   -0.007723   -0.021183    0.005736
 step:   0.5560(harm=  0.5384)  dis= 0.00921  next Energy=  -177.451254 (dE=-0.901E-02)
 bond charge predicted
       N       E                     dE             d eps       ncg     rms          rms(c)
DAV:   1    -0.177452714785E+03   -0.19908E-02   -0.86247E-02  1136   0.170E+00    0.564E-01
DAV:   2    -0.177532639983E+03   -0.79925E-01   -0.34301E-01  2176   0.543E+00    0.375E+00
DAV:   3    -0.177451014980E+03    0.81625E-01   -0.25509E-01  2176   0.467E+00    0.325E-01
DAV:   4    -0.177451551164E+03   -0.53618E-03   -0.17312E-02  1832   0.106E+00    0.268E-01
DAV:   5    -0.177451435504E+03    0.11566E-03   -0.40681E-03  1824   0.632E-01    0.175E-01
DAV:   6    -0.177451186244E+03    0.24926E-03   -0.19299E-03  1752   0.340E-01    0.865E-02
DAV:   7    -0.177451171992E+03    0.14253E-04   -0.48265E-04  1888   0.172E-01    0.596E-02
DAV:   8    -0.177451134803E+03    0.37189E-04   -0.24279E-04  1736   0.109E-01    0.170E-02
DAV:   9    -0.177451141451E+03   -0.66482E-05   -0.90995E-05  1456   0.758E-02
  28 F= -.17745114E+03 E0= -.17740460E+03  d E =-.890021E-02
 curvature:  -0.56 expect dE=-0.345E-02 dE for cont linesearch -0.544E-05
 trial: gam= 0.12790 g(F)=  0.439E-02 g(S)=  0.175E-02 ort = 0.796E-03 (trialstep = 0.659E+00)
 search vector abs. value=  0.742E-02
 bond charge predicted
       N       E                     dE             d eps       ncg     rms          rms(c)
DAV:   1    -0.177454536069E+03   -0.34013E-02   -0.25191E-01  1096   0.182E+00    0.177E-01
DAV:   2    -0.177458151288E+03   -0.36152E-02   -0.24762E-02  2176   0.128E+00    0.720E-01
DAV:   3    -0.177454909901E+03    0.32414E-02   -0.12835E-02  2160   0.107E+00    0.172E-01
DAV:   4    -0.177454807529E+03    0.10237E-03   -0.26536E-03  2040   0.418E-01    0.113E-01
DAV:   5    -0.177454738995E+03    0.68533E-04   -0.12174E-03  2088   0.300E-01    0.112E-01
DAV:   6    -0.177454655396E+03    0.83599E-04   -0.99735E-04  2096   0.260E-01    0.645E-02
DAV:   7    -0.177454668074E+03   -0.12678E-04   -0.36583E-04  2032   0.187E-01    0.693E-02
DAV:   8    -0.177454621352E+03    0.46722E-04   -0.22748E-04  2000   0.133E-01    0.121E-02
DAV:   9    -0.177454621174E+03    0.17812E-06   -0.22402E-05   816   0.441E-02
  29 F= -.17745462E+03 E0= -.17740830E+03  d E =-.347972E-02
 trial-energy change:   -0.003480  1 .order   -0.003482   -0.004110   -0.002854
 step:   2.1550(harm=  2.1550)  dis= 0.01519  next Energy=  -177.457866 (dE=-0.672E-02)
 bond charge predicted
       N       E                     dE             d eps       ncg     rms          rms(c)
DAV:   1    -0.177457326439E+03   -0.27051E-02   -0.13018E+00  1096   0.414E+00    0.403E-01
DAV:   2    -0.177476157412E+03   -0.18831E-01   -0.12575E-01  2176   0.290E+00    0.165E+00
DAV:   3    -0.177459149575E+03    0.17008E-01   -0.65408E-02  2152   0.244E+00    0.372E-01
DAV:   4    -0.177458763112E+03    0.38646E-03   -0.13375E-02  2056   0.934E-01    0.261E-01
DAV:   5    -0.177458406067E+03    0.35704E-03   -0.63907E-03  2088   0.712E-01    0.267E-01
DAV:   6    -0.177457929901E+03    0.47617E-03   -0.44763E-03  2080   0.634E-01    0.144E-01
DAV:   7    -0.177457984408E+03   -0.54507E-04   -0.19418E-03  2096   0.412E-01    0.153E-01
DAV:   8    -0.177457761252E+03    0.22316E-03   -0.12326E-03  2072   0.280E-01    0.277E-02
DAV:   9    -0.177457769671E+03   -0.84191E-05   -0.17373E-04  1856   0.102E-01    0.363E-02
DAV:  10    -0.177457762804E+03    0.68668E-05   -0.61145E-05  1432   0.883E-02
  30 F= -.17745776E+03 E0= -.17741197E+03  d E =-.662135E-02
 curvature:  -1.28 expect dE=-0.324E-02 dE for cont linesearch -0.285E-05
 trial: gam= 0.46058 g(F)=  0.123E-02 g(S)=  0.130E-02 ort =-0.128E-03 (trialstep = 0.958E+00)
 search vector abs. value=  0.398E-02
 bond charge predicted
       N       E                     dE             d eps       ncg     rms          rms(c)
DAV:   1    -0.177459764899E+03   -0.19952E-02   -0.23174E-01  1096   0.178E+00    0.290E-01
DAV:   2    -0.177476651211E+03   -0.16886E-01   -0.82247E-02  2176   0.256E+00    0.172E+00
DAV:   3    -0.177459787349E+03    0.16864E-01   -0.54874E-02  2176   0.217E+00    0.204E-01
DAV:   4    -0.177459799327E+03   -0.11978E-04   -0.54146E-03  1968   0.590E-01    0.167E-01
DAV:   5    -0.177459822828E+03   -0.23501E-04   -0.20201E-03  1888   0.477E-01    0.175E-01
DAV:   6    -0.177459553362E+03    0.26947E-03   -0.15479E-03  1928   0.372E-01    0.589E-02
DAV:   7    -0.177459555429E+03   -0.20671E-05   -0.42494E-04  1864   0.153E-01    0.517E-02
DAV:   8    -0.177459523532E+03    0.31898E-04   -0.22480E-04  1712   0.110E-01    0.170E-02
DAV:   9    -0.177459528732E+03   -0.52000E-05   -0.59249E-05  1296   0.707E-02
  31 F= -.17745953E+03 E0= -.17741368E+03  d E =-.176593E-02
 trial-energy change:   -0.001766  1 .order   -0.001767   -0.002366   -0.001167
 step:   1.8903(harm=  1.8903)  dis= 0.00752  next Energy=  -177.460098 (dE=-0.234E-02)
 bond charge predicted
       N       E                     dE             d eps       ncg     rms          rms(c)
DAV:   1    -0.177460309567E+03   -0.78604E-03   -0.21964E-01  1088   0.173E+00    0.280E-01
DAV:   2    -0.177475985500E+03   -0.15676E-01   -0.76417E-02  2176   0.247E+00    0.166E+00
DAV:   3    -0.177460334914E+03    0.15651E-01   -0.51140E-02  2176   0.209E+00    0.196E-01
DAV:   4    -0.177460341247E+03   -0.63333E-05   -0.49823E-03  1944   0.568E-01    0.161E-01
DAV:   5    -0.177460367672E+03   -0.26425E-04   -0.19003E-03  1856   0.470E-01    0.171E-01
DAV:   6    -0.177460113486E+03    0.25419E-03   -0.14193E-03  1896   0.365E-01    0.581E-02
DAV:   7    -0.177460119104E+03   -0.56187E-05   -0.45801E-04  1824   0.156E-01    0.543E-02
DAV:   8    -0.177460084894E+03    0.34210E-04   -0.24213E-04  1712   0.111E-01    0.174E-02
DAV:   9    -0.177460089845E+03   -0.49508E-05   -0.51851E-05  1248   0.725E-02
  32 F= -.17746009E+03 E0= -.17741418E+03  d E =-.232704E-02
 curvature:  -1.52 expect dE=-0.411E-02 dE for cont linesearch -0.574E-08
 trial: gam= 1.01244 g(F)=  0.703E-03 g(S)=  0.199E-02 ort = 0.387E-05 (trialstep = 0.672E+00)
 search vector abs. value=  0.679E-02
 bond charge predicted
       N       E                     dE             d eps       ncg     rms          rms(c)
DAV:   1    -0.177463537772E+03   -0.34529E-02   -0.20396E-01  1160   0.240E+00    0.736E-01
DAV:   2    -0.177594546868E+03   -0.13101E+00   -0.55736E-01  2176   0.692E+00    0.487E+00
DAV:   3    -0.177461219054E+03    0.13333E+00   -0.48178E-01  2176   0.619E+00    0.487E-01
DAV:   4    -0.177461545470E+03   -0.32642E-03   -0.32154E-02  1840   0.146E+00    0.339E-01
DAV:   5    -0.177461431813E+03    0.11366E-03   -0.72290E-03  1816   0.820E-01    0.240E-01
DAV:   6    -0.177461039939E+03    0.39187E-03   -0.31553E-03  1760   0.432E-01    0.127E-01
DAV:   7    -0.177460986833E+03    0.53106E-04   -0.72221E-04  1944   0.210E-01    0.724E-02
DAV:   8    -0.177460939598E+03    0.47235E-04   -0.38216E-04  1752   0.135E-01    0.216E-02
DAV:   9    -0.177460945828E+03   -0.62305E-05   -0.13038E-04  1616   0.791E-02    0.309E-02
DAV:  10    -0.177460934272E+03    0.11556E-04   -0.58036E-05  1256   0.602E-02    0.104E-02
DAV:  11    -0.177460934649E+03   -0.37646E-06   -0.12232E-05   640   0.317E-02
  33 F= -.17746093E+03 E0= -.17741519E+03  d E =-.844804E-03
 trial-energy change:   -0.000845  1 .order   -0.000831   -0.001813    0.000150
 step:   0.6202(harm=  0.6202)  dis= 0.00306  next Energy=  -177.460927 (dE=-0.837E-03)
 bond charge predicted
       N       E                     dE             d eps       ncg     rms          rms(c)
DAV:   1    -0.177460957812E+03   -0.23539E-04   -0.12318E-03  1244   0.187E-01    0.589E-02
DAV:   2    -0.177461814682E+03   -0.85687E-03   -0.36860E-03  2176   0.557E-01    0.391E-01
DAV:   3    -0.177460936963E+03    0.87772E-03   -0.28756E-03  2176   0.495E-01    0.368E-02
DAV:   4    -0.177460940680E+03   -0.37176E-05   -0.19631E-04  1784   0.115E-01    0.287E-02
DAV:   5    -0.177460937309E+03    0.33719E-05   -0.40985E-05  1072   0.699E-02
  34 F= -.17746094E+03 E0= -.17741518E+03  d E =-.847464E-03
 curvature:  -0.78 expect dE=-0.828E-03 dE for cont linesearch -0.491E-05
 trial: gam= 0.49578 g(F)=  0.512E-03 g(S)=  0.550E-03 ort =-0.207E-03 (trialstep = 0.661E+00)
 search vector abs. value=  0.253E-02
 bond charge predicted
       N       E                     dE             d eps       ncg     rms          rms(c)
DAV:   1    -0.177461431129E+03   -0.49045E-03   -0.71364E-02  1088   0.919E-01    0.101E-01
DAV:   2    -0.177463381170E+03   -0.19500E-02   -0.10749E-02  2176   0.907E-01    0.550E-01
DAV:   3    -0.177461516350E+03    0.18648E-02   -0.65829E-03  2176   0.765E-01    0.913E-02
DAV:   4    -0.177461495655E+03    0.20695E-04   -0.65655E-04  1856   0.220E-01    0.627E-02
DAV:   5    -0.177461497242E+03   -0.15871E-05   -0.33399E-04  1840   0.185E-01    0.687E-02
DAV:   6    -0.177461450266E+03    0.46976E-04   -0.29730E-04  1864   0.149E-01    0.228E-02
DAV:   7    -0.177461454664E+03   -0.43975E-05   -0.11719E-04  1536   0.815E-02    0.288E-02
DAV:   8    -0.177461442178E+03    0.12486E-04   -0.37182E-05   992   0.623E-02    0.918E-03
DAV:   9    -0.177461443567E+03   -0.13897E-05   -0.25271E-05   784   0.246E-02
  35 F= -.17746144E+03 E0= -.17741572E+03  d E =-.506259E-03
 trial-energy change:   -0.000506  1 .order   -0.000515   -0.000635   -0.000395
 step:   1.7550(harm=  1.7550)  dis= 0.00558  next Energy=  -177.461779 (dE=-0.842E-03)
 bond charge predicted
       N       E                     dE             d eps       ncg     rms          rms(c)
DAV:   1    -0.177461735762E+03   -0.29358E-03   -0.19513E-01  1088   0.152E+00    0.161E-01
DAV:   2    -0.177466275299E+03   -0.45395E-02   -0.26199E-02  2176   0.141E+00    0.832E-01
DAV:   3    -0.177461984236E+03    0.42911E-02   -0.15401E-02  2176   0.117E+00    0.149E-01
DAV:   4    -0.177461924552E+03    0.59684E-04   -0.17554E-03  1904   0.361E-01    0.106E-01
DAV:   5    -0.177461931023E+03   -0.64706E-05   -0.92086E-04  1880   0.312E-01    0.121E-01
DAV:   6    -0.177461795076E+03    0.13595E-03   -0.85175E-04  1912   0.256E-01    0.391E-02
DAV:   7    -0.177461809471E+03   -0.14395E-04   -0.36505E-04  1816   0.141E-01    0.495E-02
DAV:   8    -0.177461777220E+03    0.32251E-04   -0.16830E-04  1712   0.104E-01    0.125E-02
DAV:   9    -0.177461777142E+03    0.77755E-07   -0.19311E-05   672   0.400E-02
  36 F= -.17746178E+03 E0= -.17741611E+03  d E =-.839833E-03
 curvature:  -2.31 expect dE=-0.660E-03 dE for cont linesearch -0.107E-06
 trial: gam= 0.20654 g(F)=  0.258E-03 g(S)=  0.276E-04 ort = 0.108E-04 (trialstep = 0.880E+00)
 search vector abs. value=  0.398E-03
 bond charge predicted
       N       E                     dE             d eps       ncg     rms          rms(c)
DAV:   1    -0.177461979156E+03   -0.20194E-03   -0.19045E-02  1088   0.500E-01    0.868E-02
DAV:   2    -0.177463555418E+03   -0.15763E-02   -0.77233E-03  2176   0.779E-01    0.526E-01
DAV:   3    -0.177461991013E+03    0.15644E-02   -0.53594E-03  2176   0.670E-01    0.680E-02
DAV:   4    -0.177461982619E+03    0.83948E-05   -0.49719E-04  1920   0.180E-01    0.442E-02
DAV:   5    -0.177461988838E+03   -0.62197E-05   -0.16893E-04  1840   0.132E-01    0.491E-02
DAV:   6    -0.177461968387E+03    0.20452E-04   -0.12163E-04  1664   0.103E-01    0.168E-02
DAV:   7    -0.177461968256E+03    0.13125E-06   -0.35790E-05   952   0.542E-02
  37 F= -.17746197E+03 E0= -.17741631E+03  d E =-.191114E-03
 trial-energy change:   -0.000191  1 .order   -0.000195   -0.000253   -0.000136
 step:   1.9083(harm=  1.9083)  dis= 0.00242  next Energy=  -177.462052 (dE=-0.275E-03)
 bond charge predicted
       N       E                     dE             d eps       ncg     rms          rms(c)
DAV:   1    -0.177462054755E+03   -0.86368E-04   -0.26002E-02  1088   0.587E-01    0.989E-02
DAV:   2    -0.177464089677E+03   -0.20349E-02   -0.99748E-03  2176   0.875E-01    0.601E-01
DAV:   3    -0.177462068081E+03    0.20216E-02   -0.68408E-03  2176   0.755E-01    0.737E-02
DAV:   4    -0.177462062288E+03    0.57928E-05   -0.64406E-04  1936   0.203E-01    0.518E-02
DAV:   5    -0.177462070386E+03   -0.80980E-05   -0.21675E-04  1872   0.156E-01    0.587E-02
DAV:   6    -0.177462041188E+03    0.29199E-04   -0.16202E-04  1824   0.123E-01    0.197E-02
DAV:   7    -0.177462040877E+03    0.31101E-06   -0.45165E-05  1088   0.520E-02
  38 F= -.17746204E+03 E0= -.17741640E+03  d E =-.263735E-03
 curvature:  -1.32 expect dE=-0.412E-03 dE for cont linesearch -0.170E-06
 trial: gam= 1.13661 g(F)=  0.682E-04 g(S)=  0.244E-03 ort =-0.717E-05 (trialstep = 0.533E+00)
 search vector abs. value=  0.810E-03
 bond charge predicted
       N       E                     dE             d eps       ncg     rms          rms(c)
DAV:   1    -0.177462288120E+03   -0.24693E-03   -0.15779E-02  1136   0.636E-01    0.187E-01
DAV:   2    -0.177470776567E+03   -0.84884E-02   -0.36609E-02  2176   0.179E+00    0.123E+00
DAV:   3    -0.177462133486E+03    0.86431E-02   -0.27737E-02  2176   0.154E+00    0.118E-01
DAV:   4    -0.177462169382E+03   -0.35895E-04   -0.19142E-03  1840   0.356E-01    0.877E-02
DAV:   5    -0.177462152752E+03    0.16630E-04   -0.45273E-04  1840   0.207E-01    0.580E-02
DAV:   6    -0.177462128211E+03    0.24541E-04   -0.22980E-04  1632   0.111E-01    0.303E-02
DAV:   7    -0.177462121567E+03    0.66443E-05   -0.27697E-05   848   0.554E-02
  39 F= -.17746212E+03 E0= -.17741642E+03  d E =-.806900E-04
 trial-energy change:   -0.000081  1 .order   -0.000107   -0.000162   -0.000051
 step:   0.7797(harm=  0.7797)  dis= 0.00126  next Energy=  -177.462160 (dE=-0.119E-03)
 bond charge predicted
       N       E                     dE             d eps       ncg     rms          rms(c)
DAV:   1    -0.177462150263E+03   -0.22052E-04   -0.33379E-03  1156   0.293E-01    0.853E-02
DAV:   2    -0.177463882796E+03   -0.17325E-02   -0.76153E-03  2176   0.803E-01    0.553E-01
DAV:   3    -0.177462115829E+03    0.17670E-02   -0.57150E-03  2176   0.699E-01    0.560E-02
DAV:   4    -0.177462122369E+03   -0.65396E-05   -0.39961E-04  1848   0.164E-01    0.412E-02
DAV:   5    -0.177462115734E+03    0.66354E-05   -0.81120E-05  1400   0.948E-02
  40 F= -.17746212E+03 E0= -.17741637E+03  d E =-.748568E-04
 curvature:  -1.04 expect dE=-0.988E-04 dE for cont linesearch -0.187E-05
 ZBRENT: increasing intervall
 opt :   1.2727  next Energy=  -177.462106 (dE=-0.651E-04)
 bond charge predicted
       N       E                     dE             d eps       ncg     rms          rms(c)
DAV:   1    -0.177462172139E+03   -0.49771E-04   -0.13461E-02  1144   0.583E-01    0.182E-01
DAV:   2    -0.177470365249E+03   -0.81931E-02   -0.35298E-02  2176   0.174E+00    0.120E+00
DAV:   3    -0.177462014209E+03    0.83510E-02   -0.26828E-02  2176   0.152E+00    0.118E-01
DAV:   4    -0.177462041083E+03   -0.26874E-04   -0.17710E-03  1832   0.343E-01    0.798E-02
DAV:   5    -0.177462027462E+03    0.13621E-04   -0.40682E-04  1824   0.190E-01    0.505E-02
DAV:   6    -0.177462008989E+03    0.18472E-04   -0.20076E-04  1608   0.978E-02    0.298E-02
DAV:   7    -0.177462002278E+03    0.67115E-05   -0.24268E-05   824   0.521E-02
  41 F= -.17746200E+03 E0= -.17741620E+03  d E =0.385990E-04
 curvature:   5.42 expect dE= 0.280E-02 dE for cont linesearch  0.495E-03
 ZBRENT: bracketing found
 ZBRENT: interpolating
 opt :   0.8404  next Energy=  -177.462117 (dE=-0.760E-04)
 bond charge predicted
       N       E                     dE             d eps       ncg     rms          rms(c)
DAV:   1    -0.177462189798E+03   -0.18081E-03   -0.10475E-02  1152   0.515E-01    0.150E-01
DAV:   2    -0.177467718911E+03   -0.55291E-02   -0.23406E-02  2176   0.144E+00    0.993E-01
DAV:   3    -0.177462110814E+03    0.56081E-02   -0.18677E-02  2176   0.125E+00    0.981E-02
DAV:   4    -0.177462122891E+03   -0.12077E-04   -0.12542E-03  1824   0.289E-01    0.660E-02
DAV:   5    -0.177462124519E+03   -0.16284E-05   -0.32338E-04  1824   0.169E-01    0.494E-02
DAV:   6    -0.177462105755E+03    0.18765E-04   -0.15280E-04  1568   0.935E-02    0.232E-02
DAV:   7    -0.177462104738E+03    0.10164E-05   -0.23787E-05   780   0.502E-02
  42 F= -.17746210E+03 E0= -.17741636E+03  d E =-.638613E-04
 curvature:  -0.01 expect dE=-0.403E-05 dE for cont linesearch -0.469E-06
 ZBRENT: interpolating
 opt :   0.7907  next Energy=  -177.462116 (dE=-0.751E-04)
 bond charge predicted
       N       E                     dE             d eps       ncg     rms          rms(c)
DAV:   1    -0.177462110067E+03   -0.43123E-05   -0.14706E-04  1540   0.666E-02    0.181E-02
DAV:   2    -0.177462181647E+03   -0.71580E-04   -0.33212E-04  2144   0.154E-01    0.111E-01
DAV:   3    -0.177462109102E+03    0.72544E-04   -0.24231E-04  2080   0.144E-01    0.135E-02
DAV:   4    -0.177462108584E+03    0.51805E-06   -0.14919E-05   620   0.374E-02
  43 F= -.17746211E+03 E0= -.17741638E+03  d E =-.677074E-04
 curvature:  -0.01 expect dE=-0.887E-06 dE for cont linesearch -0.501E-07
 ZBRENT: interpolating
 opt :   0.7831  next Energy=  -177.462116 (dE=-0.749E-04)
 bond charge predicted
       N       E                     dE             d eps       ncg     rms          rms(c)
DAV:   1    -0.177462109860E+03   -0.75731E-06   -0.11419E-05   544   0.286E-02    0.953E-03
DAV:   2    -0.177462119589E+03   -0.97297E-05   -0.45633E-05  1088   0.764E-02
  44 F= -.17746212E+03 E0= -.17741637E+03  d E =-.787125E-04
 curvature:  -0.01 expect dE=-0.118E-05 dE for cont linesearch -0.920E-07
 ZBRENT: interpolating
 opt :   0.7872  next Energy=  -177.462109 (dE=-0.679E-04)
 bond charge predicted
       N       E                     dE             d eps       ncg     rms          rms(c)
DAV:   1    -0.177462109913E+03   -0.53091E-07   -0.24708E-05   688   0.722E-02    0.872E-03
DAV:   2    -0.177462122404E+03   -0.12491E-04   -0.94077E-05  1480   0.722E-02    0.376E-02
DAV:   3    -0.177462108978E+03    0.13426E-04   -0.38053E-05   932   0.703E-02    0.146E-02
DAV:   4    -0.177462108815E+03    0.16360E-06   -0.21385E-05   740   0.258E-02
  45 F= -.17746211E+03 E0= -.17741637E+03  d E =-.679381E-04
 curvature:  -0.01 expect dE=-0.228E-05 dE for cont linesearch -0.151E-06
 ZBRENT: bisectioning
 opt :   0.7852  next Energy=  -177.462120 (dE=-0.788E-04)
 bond charge predicted
       N       E                     dE             d eps       ncg     rms          rms(c)
DAV:   1    -0.177462109388E+03   -0.40969E-06   -0.48115E-06   548   0.111E-02    0.378E-03
DAV:   2    -0.177462112385E+03   -0.29965E-05   -0.13011E-05   544   0.392E-02
  46 F= -.17746211E+03 E0= -.17741637E+03  d E =-.715079E-04
 curvature:  -0.01 expect dE=-0.801E-06 dE for cont linesearch -0.913E-08
 ZBRENT: interpolating
 opt :   0.7858  next Energy=  -177.462112 (dE=-0.715E-04)
 bond charge predicted
       N       E                     dE             d eps       ncg     rms          rms(c)
DAV:   1    -0.177462109888E+03   -0.50003E-06   -0.78049E-06   544   0.363E-02    0.447E-03
DAV:   2    -0.177462110547E+03   -0.65914E-06   -0.80789E-06   544   0.303E-02
  47 F= -.17746211E+03 E0= -.17741639E+03  d E =-.696706E-04
 curvature:  -0.01 expect dE=-0.151E-05 dE for cont linesearch -0.523E-07
 ZBRENT: interpolating
 opt :   0.7854  next Energy=  -177.462112 (dE=-0.715E-04)
 bond charge predicted
       N       E                     dE             d eps       ncg     rms          rms(c)
DAV:   1    -0.177462110104E+03   -0.21568E-06   -0.43245E-06   544   0.287E-02    0.792E-03
DAV:   2    -0.177462127639E+03   -0.17535E-04   -0.46876E-05  1140   0.858E-02    0.531E-02
DAV:   3    -0.177462109258E+03    0.18381E-04   -0.32683E-05  1032   0.809E-02    0.419E-03
DAV:   4    -0.177462109584E+03   -0.32692E-06   -0.70681E-06   604   0.154E-02
  48 F= -.17746211E+03 E0= -.17741637E+03  d E =-.687077E-04
 curvature:  -0.00 expect dE=-0.121E-06 dE for cont linesearch -0.580E-08
 ZBRENT: interpolating
 opt :   0.7852  next Energy=  -177.462112 (dE=-0.715E-04)
 bond charge predicted
       N       E                     dE             d eps       ncg     rms          rms(c)
DAV:   1    -0.177462109682E+03   -0.42460E-06   -0.12347E-06   544   0.698E-03    0.113E-03
DAV:   2    -0.177462109956E+03   -0.27413E-06   -0.88747E-07   544   0.119E-02
  49 F= -.17746211E+03 E0= -.17741638E+03  d E =-.690795E-04
 curvature:  -0.00 expect dE=-0.147E-07 dE for cont linesearch -0.298E-09
 ZBRENT: interpolating
 opt :   0.7852  next Energy=  -177.462112 (dE=-0.715E-04)
 bond charge predicted
       N       E                     dE             d eps       ncg     rms          rms(c)
DAV:   1    -0.177462109741E+03   -0.58501E-07   -0.61329E-07   544   0.100E-02    0.103E-03
DAV:   2    -0.177462109888E+03   -0.14701E-06   -0.48942E-07   544   0.990E-03
  50 F= -.17746211E+03 E0= -.17741637E+03  d E =-.690109E-04
 curvature:  -0.00 expect dE=-0.241E-07 dE for cont linesearch -0.103E-08
 ZBRENT: interpolating
 opt :   0.7852  next Energy=  -177.462112 (dE=-0.715E-04)
 bond charge predicted
       N       E                     dE             d eps       ncg     rms          rms(c)
DAV:   1    -0.177462109755E+03   -0.14362E-07   -0.36778E-07   544   0.883E-03    0.104E-03
DAV:   2    -0.177462109996E+03   -0.24123E-06   -0.58468E-07   544   0.107E-02
  51 F= -.17746211E+03 E0= -.17741638E+03  d E =-.691195E-04
 curvature:  -0.00 expect dE=-0.212E-08 dE for cont linesearch -0.461E-10
 ZBRENT: interpolating
 opt :   0.7852  next Energy=  -177.462112 (dE=-0.715E-04)
 bond charge predicted
       N       E                     dE             d eps       ncg     rms          rms(c)
DAV:   1    -0.177462109756E+03   -0.12506E-08   -0.40990E-07   544   0.952E-03    0.727E-04
DAV:   2    -0.177462109806E+03   -0.49266E-07   -0.28399E-07   544   0.660E-03
  52 F= -.17746211E+03 E0= -.17741637E+03  d E =-.689288E-04
 curvature:  -0.00 expect dE=-0.271E-08 dE for cont linesearch -0.127E-09
 ZBRENT: interpolating
 opt :   0.7852  next Energy=  -177.462112 (dE=-0.715E-04)
 bond charge predicted
       N       E                     dE             d eps       ncg     rms          rms(c)
DAV:   1    -0.177462109764E+03   -0.73578E-08   -0.20454E-07   544   0.610E-03    0.111E-03
DAV:   2    -0.177462110052E+03   -0.28885E-06   -0.64177E-07   544   0.119E-02
  53 F= -.17746211E+03 E0= -.17741638E+03  d E =-.691757E-04
 curvature:  -0.00 expect dE=-0.213E-09 dE for cont linesearch -0.537E-11
 ZBRENT: interpolating
 opt :   0.7852  next Energy=  -177.462112 (dE=-0.715E-04)
 bond charge predicted
       N       E                     dE             d eps       ncg     rms          rms(c)
DAV:   1    -0.177462109754E+03    0.91732E-08   -0.42497E-07   544   0.105E-02    0.676E-04
DAV:   2    -0.177462109782E+03   -0.27741E-07   -0.26241E-07   544   0.535E-03
  54 F= -.17746211E+03 E0= -.17741637E+03  d E =-.689054E-04
 curvature:  -0.00 expect dE=-0.230E-09 dE for cont linesearch -0.999E-11
 ZBRENT: interpolating
 opt :   0.7852  next Energy=  -177.462112 (dE=-0.715E-04)
 bond charge predicted
       N       E                     dE             d eps       ncg     rms          rms(c)
DAV:   1    -0.177462109758E+03   -0.31578E-08   -0.15924E-07   544   0.481E-03    0.104E-03
DAV:   2    -0.177462110028E+03   -0.27004E-06   -0.57239E-07   544   0.108E-02
  55 F= -.17746211E+03 E0= -.17741638E+03  d E =-.691509E-04
 curvature:  -0.00 expect dE=-0.249E-10 dE for cont linesearch -0.474E-12
 ZBRENT: interpolating
 opt :   0.7852  next Energy=  -177.462112 (dE=-0.715E-04)
 bond charge predicted
       N       E                     dE             d eps       ncg     rms          rms(c)
DAV:   1    -0.177462109752E+03    0.53315E-08   -0.39120E-07   544   0.990E-03    0.692E-04
DAV:   2    -0.177462109804E+03   -0.52095E-07   -0.25038E-07   544   0.637E-03
  56 F= -.17746211E+03 E0= -.17741637E+03  d E =-.689276E-04
 curvature:  -0.00 expect dE=-0.437E-10 dE for cont linesearch -0.231E-11
 ZBRENT:  can not reach accuracy
 opt :   0.0000  next Energy=     0.000000 (dE= 0.177E+03)
 bond charge predicted
       N       E                     dE             d eps       ncg     rms          rms(c)
DAV:   1    -0.177462342207E+03   -0.23245E-03   -0.34109E-02  1136   0.929E-01    0.272E-01
DAV:   2    -0.177480351703E+03   -0.18009E-01   -0.76913E-02  2176   0.260E+00    0.179E+00
DAV:   3    -0.177462074874E+03    0.18277E-01   -0.62092E-02  2176   0.227E+00    0.181E-01
DAV:   4    -0.177462111384E+03   -0.36510E-04   -0.41487E-03  1824   0.529E-01    0.122E-01
DAV:   5    -0.177462104669E+03    0.67147E-05   -0.10221E-03  1824   0.304E-01    0.867E-02
DAV:   6    -0.177462051420E+03    0.53249E-04   -0.50707E-04  1736   0.166E-01    0.457E-02
DAV:   7    -0.177462045253E+03    0.61674E-05   -0.98622E-05  1408   0.841E-02
  57 F= -.17746205E+03 E0= -.17741642E+03  d E =-.437627E-05
 curvature:   0.00 expect dE= 0.104-321 dE for cont linesearch  0.346-322
 ZBRENT: fatal error in bracketing
     please rerun with smaller EDIFF, or copy CONTCAR
     to POSCAR and continue
