<?xml version="1.0" encoding="ISO-8859-1"?>
<modeling>
 <generator>
  <i name="program" type="string">vasp </i>
  <i name="version" type="string">5.4.4.18Apr17-6-g9f103f2a35  </i>
  <i name="subversion" type="string">(build Jul 11 2019 11:52:51) complex            parallel </i>
  <i name="platform" type="string">LinuxIFC </i>
  <i name="date" type="string">2023 11 29 </i>
  <i name="time" type="string">17:01:29 </i>
 </generator>
 <incar>
  <i type="int" name="ISTART">     0</i>
  <i type="string" name="PREC">normal</i>
  <i type="int" name="IBRION">     2</i>
  <i name="EDIFF">      0.00001000</i>
  <i name="EDIFFG">     -0.01000000</i>
  <i type="int" name="NSW">   500</i>
  <i type="int" name="ISIF">     3</i>
  <i name="POTIM">      0.50000000</i>
  <i type="int" name="ISMEAR">     0</i>
  <i name="SIGMA">      0.10000000</i>
  <i name="PSTRESS">      0.00000000</i>
  <i type="logical" name="LWAVE"> F  </i>
  <i type="logical" name="LCHARG"> F  </i>
  <v type="int" name="KPOINT_BSE">    -1     0     0     0</v>
 </incar>
 <structure name="primitive_cell" >
  <crystal>
   <varray name="basis" >
    <v>       7.44800900       0.00000000       0.00000000 </v>
    <v>      -0.75498900       9.53770200       0.00000000 </v>
    <v>       0.28102200       1.63856200       3.64700700 </v>
   </varray>
   <i name="volume">    259.07203631 </i>
   <varray name="rec_basis" >
    <v>       0.13426407       0.01062813      -0.01512089 </v>
    <v>       0.00000000       0.10484706      -0.04710668 </v>
    <v>       0.00000000       0.00000000       0.27419744 </v>
   </varray>
  </crystal>
  <varray name="positions" >
   <v>      -0.23461600      -0.15664200       0.27062900 </v>
   <v>      -0.43811700      -0.21999000      -0.22937700 </v>
   <v>      -0.01766600      -0.04691200      -0.22936500 </v>
   <v>      -0.14366600      -0.36876400      -0.22940500 </v>
   <v>      -0.28474500       0.08328000      -0.22959600 </v>
   <v>      -0.38432900      -0.41569900       0.27066500 </v>
   <v>      -0.44976200       0.05030100       0.27065500 </v>
   <v>       0.05008700      -0.31176900       0.27062300 </v>
   <v>      -0.15550500       0.12204900       0.27033200 </v>
   <v>       0.35971200      -0.23432100       0.27067600 </v>
   <v>       0.16882100       0.02957500       0.27073200 </v>
   <v>       0.38948800       0.02975900      -0.22923300 </v>
   <v>       0.39921800      -0.49859600      -0.22935900 </v>
   <v>       0.19471900      -0.28194500      -0.22934800 </v>
   <v>      -0.18854800       0.39141300       0.27071500 </v>
   <v>      -0.37194500       0.34489100      -0.22922600 </v>
   <v>       0.21840000       0.21178700      -0.22939800 </v>
   <v>       0.01129700       0.36090400      -0.22940400 </v>
   <v>       0.44238000       0.28042500       0.27084600 </v>
   <v>       0.19390700       0.40998200       0.27064000 </v>
  </varray>
 </structure>
 <varray name="primitive_index" >
  <v type="int" >        1 </v>
  <v type="int" >       17 </v>
  <v type="int" >       14 </v>
  <v type="int" >        9 </v>
  <v type="int" >       10 </v>
  <v type="int" >        5 </v>
  <v type="int" >       19 </v>
  <v type="int" >        8 </v>
  <v type="int" >       18 </v>
  <v type="int" >        4 </v>
  <v type="int" >        3 </v>
  <v type="int" >       16 </v>
  <v type="int" >       15 </v>
  <v type="int" >       11 </v>
  <v type="int" >        2 </v>
  <v type="int" >       12 </v>
  <v type="int" >       20 </v>
  <v type="int" >       13 </v>
  <v type="int" >        7 </v>
  <v type="int" >        6 </v>
 </varray>
 <kpoints>
  <generation param="Gamma">
   <v type="int" name="divisions">       2        2        3 </v>
   <v name="usershift">      0.00000000       0.00000000       0.00000000 </v>
   <v name="genvec1">      0.50000000       0.00000000      -0.00000000 </v>
   <v name="genvec2">      0.00000000       0.50000000       0.00000000 </v>
   <v name="genvec3">      0.00000000       0.00000000       0.33333333 </v>
   <v name="shift">      0.00000000       0.00000000       0.00000000 </v>
  </generation>
  <varray name="kpointlist" >
   <v>       0.00000000       0.00000000       0.00000000 </v>
   <v>       0.50000000       0.00000000       0.00000000 </v>
   <v>       0.00000000       0.50000000       0.00000000 </v>
   <v>       0.50000000       0.50000000       0.00000000 </v>
   <v>       0.00000000       0.00000000       0.33333333 </v>
   <v>       0.50000000       0.00000000       0.33333333 </v>
   <v>       0.00000000       0.50000000       0.33333333 </v>
   <v>       0.50000000       0.50000000       0.33333333 </v>
  </varray>
  <varray name="weights" >
   <v>       0.08333333 </v>
   <v>       0.08333333 </v>
   <v>       0.08333333 </v>
   <v>       0.08333333 </v>
   <v>       0.16666667 </v>
   <v>       0.16666667 </v>
   <v>       0.16666667 </v>
   <v>       0.16666667 </v>
  </varray>
 </kpoints>
 <parameters>
  <separator name="general" >
   <i type="string" name="SYSTEM">unknown system</i>
   <i type="logical" name="LCOMPAT"> F  </i>
  </separator>
  <separator name="electronic" >
   <i type="string" name="PREC">normal</i>
   <i name="ENMAX">    267.88200000</i>
   <i name="ENAUG">    511.36800000</i>
   <i name="EDIFF">      0.00001000</i>
   <i type="int" name="IALGO">    38</i>
   <i type="int" name="IWAVPR">    11</i>
   <i type="int" name="NBANDS">    68</i>
   <i name="NELECT">    109.00000000</i>
   <i type="int" name="TURBO">     0</i>
   <i type="int" name="IRESTART">     0</i>
   <i type="int" name="NREBOOT">     0</i>
   <i type="int" name="NMIN">     0</i>
   <i name="EREF">      0.00000000</i>
   <separator name="electronic smearing" >
    <i type="int" name="ISMEAR">     0</i>
    <i name="SIGMA">      0.10000000</i>
    <i name="KSPACING">      0.50000000</i>
    <i type="logical" name="KGAMMA"> T  </i>
   </separator>
   <separator name="electronic projectors" >
    <i type="logical" name="LREAL"> F  </i>
    <v name="ROPT">      0.00000000      0.00000000</v>
    <i type="int" name="LMAXPAW">  -100</i>
    <i type="int" name="LMAXMIX">     2</i>
    <i type="logical" name="NLSPLINE"> F  </i>
   </separator>
   <separator name="electronic startup" >
    <i type="int" name="ISTART">     0</i>
    <i type="int" name="ICHARG">     2</i>
    <i type="int" name="INIWAV">     1</i>
   </separator>
   <separator name="electronic spin" >
    <i type="int" name="ISPIN">     1</i>
    <i type="logical" name="LNONCOLLINEAR"> F  </i>
    <v name="MAGMOM">      1.00000000      1.00000000      1.00000000      1.00000000      1.00000000      1.00000000      1.00000000      1.00000000      1.00000000      1.00000000      1.00000000      1.00000000      1.00000000      1.00000000      1.00000000      1.00000000      1.00000000      1.00000000      1.00000000      1.00000000
</v>
    <i name="NUPDOWN">     -1.00000000</i>
    <i type="logical" name="LSORBIT"> F  </i>
    <v name="SAXIS">      0.00000000      0.00000000      1.00000000</v>
    <i type="logical" name="LSPIRAL"> F  </i>
    <v name="QSPIRAL">      0.00000000      0.00000000      0.00000000</v>
    <i type="logical" name="LZEROZ"> F  </i>
   </separator>
   <separator name="electronic exchange-correlation" >
    <i type="logical" name="LASPH"> F  </i>
    <i type="logical" name="LMETAGGA"> F  </i>
   </separator>
   <separator name="electronic convergence" >
    <i type="int" name="NELM">    60</i>
    <i type="int" name="NELMDL">    -5</i>
    <i type="int" name="NELMIN">     2</i>
    <i name="ENINI">    267.88200000</i>
    <separator name="electronic convergence detail" >
     <i type="logical" name="LDIAG"> T  </i>
     <i type="logical" name="LSUBROT"> F  </i>
     <i name="WEIMIN">      0.00100000</i>
     <i name="EBREAK">      0.00000004</i>
     <i name="DEPER">      0.30000000</i>
     <i type="int" name="NRMM">     4</i>
     <i name="TIME">      0.40000000</i>
    </separator>
   </separator>
   <separator name="electronic mixer" >
    <i name="AMIX">      0.40000000</i>
    <i name="BMIX">      1.00000000</i>
    <i name="AMIN">      0.10000000</i>
    <i name="AMIX_MAG">      1.60000000</i>
    <i name="BMIX_MAG">      1.00000000</i>
    <separator name="electronic mixer details" >
     <i type="int" name="IMIX">     4</i>
     <i type="logical" name="MIXFIRST"> F  </i>
     <i type="int" name="MAXMIX">   -45</i>
     <i name="WC">    100.00000000</i>
     <i type="int" name="INIMIX">     1</i>
     <i type="int" name="MIXPRE">     1</i>
     <i type="int" name="MREMOVE">     5</i>
    </separator>
   </separator>
   <separator name="electronic dipolcorrection" >
    <i type="logical" name="LDIPOL"> F  </i>
    <i type="logical" name="LMONO"> F  </i>
    <i type="int" name="IDIPOL">     0</i>
    <i name="EPSILON">      1.00000000</i>
    <v name="DIPOL">   -100.00000000   -100.00000000   -100.00000000</v>
    <i name="EFIELD">      0.00000000</i>
   </separator>
  </separator>
  <separator name="grids" >
   <i type="int" name="NGX">    30</i>
   <i type="int" name="NGY">    40</i>
   <i type="int" name="NGZ">    16</i>
   <i type="int" name="NGXF">    60</i>
   <i type="int" name="NGYF">    80</i>
   <i type="int" name="NGZF">    32</i>
   <i type="logical" name="ADDGRID"> F  </i>
  </separator>
  <separator name="ionic" >
   <i type="int" name="NSW">   500</i>
   <i type="int" name="IBRION">     2</i>
   <i type="int" name="MDALGO">     0</i>
   <i type="int" name="ISIF">     3</i>
   <i name="PSTRESS">      0.00000000</i>
   <i name="EDIFFG">     -0.01000000</i>
   <i type="int" name="NFREE">     1</i>
   <i name="POTIM">      0.50000000</i>
   <i name="SMASS">     -3.00000000</i>
   <i name="SCALEE">      1.00000000</i>
  </separator>
  <separator name="ionic md" >
   <i name="TEBEG">      0.00010000</i>
   <i name="TEEND">      0.00010000</i>
   <i type="int" name="NBLOCK">     1</i>
   <i type="int" name="KBLOCK">   500</i>
   <i type="int" name="NPACO">   256</i>
   <i name="APACO">     16.00000000</i>
  </separator>
  <separator name="symmetry" >
   <i type="int" name="ISYM">     2</i>
   <i name="SYMPREC">      0.00001000</i>
  </separator>
  <separator name="dos" >
   <i type="int" name="LORBIT">     0</i>
   <v name="RWIGS">     -1.00000000     -1.00000000</v>
   <i type="int" name="NEDOS">   301</i>
   <i name="EMIN">     10.00000000</i>
   <i name="EMAX">    -10.00000000</i>
   <i name="EFERMI">      0.00000000</i>
  </separator>
  <separator name="writing" >
   <i type="int" name="NWRITE">     2</i>
   <i type="logical" name="LWAVE"> F  </i>
   <i type="logical" name="LDOWNSAMPLE"> F  </i>
   <i type="logical" name="LCHARG"> F  </i>
   <i type="logical" name="LPARD"> F  </i>
   <i type="logical" name="LVTOT"> F  </i>
   <i type="logical" name="LVHAR"> F  </i>
   <i type="logical" name="LELF"> F  </i>
   <i type="logical" name="LOPTICS"> F  </i>
   <v name="STM">      0.00000000      0.00000000      0.00000000      0.00000000      0.00000000      0.00000000      0.00000000</v>
  </separator>
  <separator name="performance" >
   <i type="int" name="NPAR">     4</i>
   <i type="int" name="NSIM">     4</i>
   <i type="int" name="NBLK">    -1</i>
   <i type="logical" name="LPLANE"> T  </i>
   <i type="logical" name="LSCALAPACK"> T  </i>
   <i type="logical" name="LSCAAWARE"> F  </i>
   <i type="logical" name="LSCALU"> F  </i>
   <i type="logical" name="LASYNC"> F  </i>
   <i type="logical" name="LORBITALREAL"> F  </i>
  </separator>
  <separator name="miscellaneous" >
   <i type="int" name="IDIOT">     3</i>
   <i type="int" name="ISPECIAL">     0</i>
   <i type="logical" name="LMUSIC"> F  </i>
   <v name="POMASS">     50.94100000     55.84700000</v>
   <v name="DARWINR">      0.00000000      0.00000000</v>
   <v name="DARWINV">      1.00000000      1.00000000</v>
   <i type="logical" name="LCORR"> T  </i>
  </separator>
  <i type="logical" name="GGA_COMPAT"> T  </i>
  <i type="logical" name="LBERRY"> F  </i>
  <i type="int" name="ICORELEVEL">     0</i>
  <i type="logical" name="LDAU"> F  </i>
  <i type="int" name="I_CONSTRAINED_M">     0</i>
  <separator name="electronic exchange-correlation" >
   <i type="string" name="GGA">--</i>
   <i type="int" name="VOSKOWN">     0</i>
   <i type="logical" name="LHFCALC"> F  </i>
   <i type="string" name="PRECFOCK"></i>
   <i type="logical" name="LSYMGRAD"> F  </i>
   <i type="logical" name="LHFONE"> F  </i>
   <i type="logical" name="LRHFCALC"> F  </i>
   <i type="logical" name="LTHOMAS"> F  </i>
   <i type="logical" name="LMODELHF"> F  </i>
   <i name="ENCUT4O">     -1.00000000</i>
   <i type="int" name="EXXOEP">     0</i>
   <i type="int" name="FOURORBIT">     0</i>
   <i name="AEXX">      0.00000000</i>
   <i name="HFALPHA">      0.00000000</i>
   <i name="MCALPHA">      0.00000000</i>
   <i name="ALDAX">      1.00000000</i>
   <i name="AGGAX">      1.00000000</i>
   <i name="ALDAC">      1.00000000</i>
   <i name="AGGAC">      1.00000000</i>
   <i type="int" name="NKREDX">     1</i>
   <i type="int" name="NKREDY">     1</i>
   <i type="int" name="NKREDZ">     1</i>
   <i type="logical" name="SHIFTRED"> F  </i>
   <i type="logical" name="ODDONLY"> F  </i>
   <i type="logical" name="EVENONLY"> F  </i>
   <i type="int" name="LMAXFOCK">     0</i>
   <i type="int" name="NMAXFOCKAE">     0</i>
   <i type="logical" name="LFOCKAEDFT"> F  </i>
   <i name="HFSCREEN">      0.00000000</i>
   <i name="HFSCREENC">      0.00000000</i>
   <i type="int" name="NBANDSGWLOW">     0</i>
  </separator>
  <separator name="vdW DFT" >
   <i type="logical" name="LUSE_VDW"> F  </i>
   <i name="Zab_VDW">     -0.84910000</i>
   <i name="PARAM1">      0.12340000</i>
   <i name="PARAM2">      1.00000000</i>
   <i name="PARAM3">      0.00000000</i>
  </separator>
  <separator name="model GW" >
   <i type="int" name="MODEL_GW">     0</i>
   <i name="MODEL_EPS0">      7.77216109</i>
   <i name="MODEL_ALPHA">      1.00000000</i>
  </separator>
  <separator name="linear response parameters" >
   <i type="logical" name="LEPSILON"> F  </i>
   <i type="logical" name="LRPA"> F  </i>
   <i type="logical" name="LNABLA"> F  </i>
   <i type="logical" name="LVEL"> F  </i>
   <i type="int" name="KINTER">     0</i>
   <i name="CSHIFT">      0.10000000</i>
   <i name="OMEGAMAX">     -1.00000000</i>
   <i name="DEG_THRESHOLD">      0.00200000</i>
   <i name="RTIME">     -0.10000000</i>
   <i name="WPLASMAI">      0.00000000</i>
   <v name="DFIELD">      0.00000000      0.00000000      0.00000000</v>
   <v name="WPLASMA">      0.00000000      0.00000000      0.00000000      0.00000000      0.00000000      0.00000000      0.00000000      0.00000000      0.00000000</v>
  </separator>
  <separator name="orbital magnetization" >
   <i type="logical" name="NUCIND"> F  </i>
   <v name="MAGPOS">      0.00000000      0.00000000      0.00000000</v>
   <i type="logical" name="LNICSALL"> T  </i>
   <i type="logical" name="ORBITALMAG"> F  </i>
   <i type="logical" name="LMAGBLOCH"> F  </i>
   <i type="logical" name="LCHIMAG"> F  </i>
   <i type="logical" name="LGAUGE"> T  </i>
   <i type="int" name="MAGATOM">     0</i>
   <v name="MAGDIPOL">      0.00000000      0.00000000      0.00000000</v>
   <v name="AVECCONST">      0.00000000      0.00000000      0.00000000</v>
  </separator>
  <separator name="response functions" >
   <i type="logical" name="LADDER"> F  </i>
   <i type="logical" name="LRPAFORCE"> F  </i>
   <i type="logical" name="LFXC"> F  </i>
   <i type="logical" name="LHARTREE"> T  </i>
   <i type="int" name="IBSE">     0</i>
   <v type="int" name="KPOINT">    -1     0     0     0</v>
   <i type="logical" name="LTCTE"> F  </i>
   <i type="logical" name="LTETE"> F  </i>
   <i type="logical" name="LTRIPLET"> F  </i>
   <i type="logical" name="LFXCEPS"> F  </i>
   <i type="logical" name="LFXHEG"> F  </i>
   <i type="int" name="NATURALO">     2</i>
   <i type="logical" name="L2ORDER"> F  </i>
   <i type="logical" name="LMP2LT"> F  </i>
   <i type="logical" name="LUSEW"> F  </i>
   <i name="ENCUTGW">     -2.00000000</i>
   <i name="ENCUTGWSOFT">     -2.00000000</i>
   <i name="ENCUTLF">     -1.00000000</i>
   <i type="int" name="LMAXMP2">    -1</i>
   <i name="SCISSOR">      0.00000000</i>
   <i type="int" name="NOMEGA">     0</i>
   <i type="int" name="NOMEGAR">     0</i>
   <i type="int" name="NBANDSGW">    -1</i>
   <i type="int" name="NBANDSO">    -1</i>
   <i type="int" name="NBANDSV">    -1</i>
   <i type="int" name="NELM">     1</i>
   <i type="int" name="NELMHF">     1</i>
   <i type="int" name="DIM">     3</i>
   <i type="int" name="ANTIRES">     0</i>
   <i name="OMEGAMAX">    -30.00000000</i>
   <i name="OMEGAMIN">    -30.00000000</i>
   <i name="OMEGATL">   -200.00000000</i>
   <i type="int" name="OMEGAGRID">   140</i>
   <i name="CSHIFT">     -0.10000000</i>
   <i type="logical" name="SELFENERGY"> F  </i>
   <i type="logical" name="LSPECTRAL"> F  </i>
   <i type="logical" name="LSPECTRALGW"> F  </i>
   <i type="logical" name="LSINGLES"> F  </i>
   <i type="logical" name="LFERMIGW"> F  </i>
   <i type="logical" name="ODDONLYGW"> F  </i>
   <i type="logical" name="EVENONLYGW"> F  </i>
   <i type="int" name="NKREDLFX">     1</i>
   <i type="int" name="NKREDLFY">     1</i>
   <i type="int" name="NKREDLFZ">     1</i>
   <i type="int" name="MAXMEM">  2800</i>
   <i type="int" name="TELESCOPE">     0</i>
   <i type="int" name="TAUPAR">     1</i>
   <i type="int" name="OMEGAPAR">    -1</i>
   <i name="LAMBDA">      1.00000000</i>
  </separator>
  <separator name="External order field" >
   <i name="OFIELD_KAPPA">      0.00000000</i>
   <v name="OFIELD_K">      0.00000000      0.00000000      0.00000000</v>
   <i name="OFIELD_Q6_NEAR">      0.00000000</i>
   <i name="OFIELD_Q6_FAR">      0.00000000</i>
   <i name="OFIELD_A">      0.00000000</i>
  </separator>
 </parameters>
 <atominfo>
  <atoms>      20 </atoms>
  <types>       2 </types>
  <array name="atoms" >
   <dimension dim="1">ion</dimension>
   <field type="string">element</field>
   <field type="int">atomtype</field>
   <set>
    <rc><c>V </c><c>   1</c></rc>
    <rc><c>V </c><c>   1</c></rc>
    <rc><c>V </c><c>   1</c></rc>
    <rc><c>V </c><c>   1</c></rc>
    <rc><c>V </c><c>   1</c></rc>
    <rc><c>V </c><c>   1</c></rc>
    <rc><c>V </c><c>   1</c></rc>
    <rc><c>V </c><c>   1</c></rc>
    <rc><c>V </c><c>   1</c></rc>
    <rc><c>V </c><c>   1</c></rc>
    <rc><c>V </c><c>   1</c></rc>
    <rc><c>V </c><c>   1</c></rc>
    <rc><c>V </c><c>   1</c></rc>
    <rc><c>V </c><c>   1</c></rc>
    <rc><c>V </c><c>   1</c></rc>
    <rc><c>V </c><c>   1</c></rc>
    <rc><c>V </c><c>   1</c></rc>
    <rc><c>Fe</c><c>   2</c></rc>
    <rc><c>Fe</c><c>   2</c></rc>
    <rc><c>Fe</c><c>   2</c></rc>
   </set>
  </array>
  <array name="atomtypes" >
   <dimension dim="1">type</dimension>
   <field type="int">atomspertype</field>
   <field type="string">element</field>
   <field>mass</field>
   <field>valence</field>
   <field type="string">pseudopotential</field>
   <set>
    <rc><c>  17</c><c>V </c><c>     50.94100000</c><c>      5.00000000</c><c>  PAW_PBE V 08Apr2002                   </c></rc>
    <rc><c>   3</c><c>Fe</c><c>     55.84700000</c><c>      8.00000000</c><c>  PAW_PBE Fe 06Sep2000                  </c></rc>
   </set>
  </array>
 </atominfo>
 <structure name="initialpos" >
  <crystal>
   <varray name="basis" >
    <v>       7.44800900       0.00000000       0.00000000 </v>
    <v>      -0.75498900       9.53770200       0.00000000 </v>
    <v>       0.28102200       1.63856200       3.64700700 </v>
   </varray>
   <i name="volume">    259.07203631 </i>
   <varray name="rec_basis" >
    <v>       0.13426407       0.01062813      -0.01512089 </v>
    <v>       0.00000000       0.10484706      -0.04710668 </v>
    <v>       0.00000000       0.00000000       0.27419744 </v>
   </varray>
  </crystal>
  <varray name="positions" >
   <v>       0.76538400       0.84335800       0.27062900 </v>
   <v>       0.81145200       0.39141300       0.27071500 </v>
   <v>       0.16882100       0.02957500       0.27073200 </v>
   <v>       0.35971200       0.76567900       0.27067600 </v>
   <v>       0.61567100       0.58430100       0.27066500 </v>
   <v>       0.19390700       0.40998200       0.27064000 </v>
   <v>       0.44238000       0.28042500       0.27084600 </v>
   <v>       0.05008700       0.68823100       0.27062300 </v>
   <v>       0.85633400       0.63123600       0.77059500 </v>
   <v>       0.71525500       0.08328000       0.77040400 </v>
   <v>       0.19471900       0.71805500       0.77065200 </v>
   <v>       0.62805500       0.34489100       0.77077400 </v>
   <v>       0.01129700       0.36090400       0.77059600 </v>
   <v>       0.98233400       0.95308800       0.77063500 </v>
   <v>       0.39921800       0.50140400       0.77064100 </v>
   <v>       0.38948800       0.02975900       0.77076700 </v>
   <v>       0.56188300       0.78001000       0.77062300 </v>
   <v>       0.84449500       0.12204900       0.27033200 </v>
   <v>       0.55023800       0.05030100       0.27065500 </v>
   <v>       0.21840000       0.21178700       0.77060200 </v>
  </varray>
 </structure>
 <calculation>
  <scstep>
   <time name="dav">    1.39    1.40</time>
   <time name="total">    1.44    1.44</time>
   <energy>
    <i name="alphaZ">    552.45266882 </i>
    <i name="ewald">  -5073.89273949 </i>
    <i name="hartreedc">   -974.89199836 </i>
    <i name="XCdc">   -770.14570875 </i>
    <i name="pawpsdc">   5171.05454107 </i>
    <i name="pawaedc">  -4356.08836938 </i>
    <i name="eentropy">     -0.07906132 </i>
    <i name="bandstr">   1427.66808940 </i>
    <i name="atom">   4687.48422623 </i>
    <i name="e_fr_energy">    663.56164822 </i>
    <i name="e_wo_entrp">    663.64070954 </i>
    <i name="e_0_energy">    663.60117888 </i>
   </energy>
  </scstep>
  <scstep>
   <time name="dav">    1.39    1.39</time>
   <time name="total">    1.39    1.39</time>
   <energy>
    <i name="e_fr_energy">    -43.74467014 </i>
    <i name="e_wo_entrp">    -43.69269286 </i>
    <i name="e_0_energy">    -43.71868150 </i>
   </energy>
  </scstep>
  <scstep>
   <time name="dav">    2.12    2.12</time>
   <time name="total">    2.12    2.13</time>
   <energy>
    <i name="e_fr_energy">   -168.30289844 </i>
    <i name="e_wo_entrp">   -168.20494735 </i>
    <i name="e_0_energy">   -168.25392290 </i>
   </energy>
  </scstep>
  <scstep>
   <time name="dav">    2.03    2.04</time>
   <time name="total">    2.03    2.04</time>
   <energy>
    <i name="e_fr_energy">   -182.58528586 </i>
    <i name="e_wo_entrp">   -182.49648808 </i>
    <i name="e_0_energy">   -182.54088697 </i>
   </energy>
  </scstep>
  <scstep>
   <time name="dav">    2.00    2.00</time>
   <time name="total">    2.06    2.06</time>
   <energy>
    <i name="e_fr_energy">   -183.49003982 </i>
    <i name="e_wo_entrp">   -183.39340235 </i>
    <i name="e_0_energy">   -183.44172109 </i>
   </energy>
  </scstep>
  <scstep>
   <time name="dav">    2.28    2.28</time>
   <time name="total">    2.38    2.39</time>
   <energy>
    <i name="e_fr_energy">   -191.26740104 </i>
    <i name="e_wo_entrp">   -191.15969271 </i>
    <i name="e_0_energy">   -191.21354688 </i>
   </energy>
  </scstep>
  <scstep>
   <time name="dav">    2.32    2.32</time>
   <time name="total">    2.42    2.42</time>
   <energy>
    <i name="e_fr_energy">   -178.73384762 </i>
    <i name="e_wo_entrp">   -178.64383524 </i>
    <i name="e_0_energy">   -178.68884143 </i>
   </energy>
  </scstep>
  <scstep>
   <time name="dav">    2.39    2.40</time>
   <time name="total">    2.50    2.50</time>
   <energy>
    <i name="e_fr_energy">   -177.70425867 </i>
    <i name="e_wo_entrp">   -177.58993188 </i>
    <i name="e_0_energy">   -177.64709527 </i>
   </energy>
  </scstep>
  <scstep>
   <time name="dav">    2.37    2.37</time>
   <time name="total">    2.47    2.47</time>
   <energy>
    <i name="e_fr_energy">   -166.36416324 </i>
    <i name="e_wo_entrp">   -166.25285986 </i>
    <i name="e_0_energy">   -166.30851155 </i>
   </energy>
  </scstep>
  <scstep>
   <time name="dav">    2.16    2.16</time>
   <time name="total">    2.26    2.26</time>
   <energy>
    <i name="e_fr_energy">   -166.13968916 </i>
    <i name="e_wo_entrp">   -166.01943333 </i>
    <i name="e_0_energy">   -166.07956125 </i>
   </energy>
  </scstep>
  <scstep>
   <time name="dav">    2.25    2.25</time>
   <time name="total">    2.35    2.35</time>
   <energy>
    <i name="e_fr_energy">   -165.80916686 </i>
    <i name="e_wo_entrp">   -165.69287498 </i>
    <i name="e_0_energy">   -165.75102092 </i>
   </energy>
  </scstep>
  <scstep>
   <time name="dav">    2.14    2.14</time>
   <time name="total">    2.24    2.24</time>
   <energy>
    <i name="e_fr_energy">   -165.63474537 </i>
    <i name="e_wo_entrp">   -165.51401819 </i>
    <i name="e_0_energy">   -165.57438178 </i>
   </energy>
  </scstep>
  <scstep>
   <time name="dav">    2.29    2.30</time>
   <time name="total">    2.39    2.40</time>
   <energy>
    <i name="e_fr_energy">   -165.65968985 </i>
    <i name="e_wo_entrp">   -165.53365671 </i>
    <i name="e_0_energy">   -165.59667328 </i>
   </energy>
  </scstep>
  <scstep>
   <time name="dav">    2.26    2.26</time>
   <time name="total">    2.36    2.36</time>
   <energy>
    <i name="e_fr_energy">   -165.45984753 </i>
    <i name="e_wo_entrp">   -165.33720544 </i>
    <i name="e_0_energy">   -165.39852649 </i>
   </energy>
  </scstep>
  <scstep>
   <time name="dav">    2.23    2.23</time>
   <time name="total">    2.33    2.34</time>
   <energy>
    <i name="e_fr_energy">   -165.40497390 </i>
    <i name="e_wo_entrp">   -165.27910184 </i>
    <i name="e_0_energy">   -165.34203787 </i>
   </energy>
  </scstep>
  <scstep>
   <time name="dav">    2.36    2.36</time>
   <time name="total">    2.46    2.46</time>
   <energy>
    <i name="e_fr_energy">   -165.38139942 </i>
    <i name="e_wo_entrp">   -165.25452142 </i>
    <i name="e_0_energy">   -165.31796042 </i>
   </energy>
  </scstep>
  <scstep>
   <time name="dav">    2.03    2.03</time>
   <time name="total">    2.13    2.14</time>
   <energy>
    <i name="e_fr_energy">   -165.37623239 </i>
    <i name="e_wo_entrp">   -165.24912568 </i>
    <i name="e_0_energy">   -165.31267903 </i>
   </energy>
  </scstep>
  <scstep>
   <time name="dav">    2.45    2.45</time>
   <time name="total">    2.55    2.55</time>
   <energy>
    <i name="e_fr_energy">   -165.37697667 </i>
    <i name="e_wo_entrp">   -165.25016300 </i>
    <i name="e_0_energy">   -165.31356984 </i>
   </energy>
  </scstep>
  <scstep>
   <time name="dav">    2.39    2.40</time>
   <time name="total">    2.50    2.50</time>
   <energy>
    <i name="e_fr_energy">   -165.37232414 </i>
    <i name="e_wo_entrp">   -165.24551987 </i>
    <i name="e_0_energy">   -165.30892201 </i>
   </energy>
  </scstep>
  <scstep>
   <time name="dav">    1.97    1.98</time>
   <time name="total">    2.07    2.08</time>
   <energy>
    <i name="e_fr_energy">   -165.37210474 </i>
    <i name="e_wo_entrp">   -165.24538692 </i>
    <i name="e_0_energy">   -165.30874583 </i>
   </energy>
  </scstep>
  <scstep>
   <time name="dav">    2.34    2.34</time>
   <time name="total">    2.44    2.44</time>
   <energy>
    <i name="e_fr_energy">   -165.37167256 </i>
    <i name="e_wo_entrp">   -165.24487375 </i>
    <i name="e_0_energy">   -165.30827315 </i>
   </energy>
  </scstep>
  <scstep>
   <time name="dav">    2.36    2.36</time>
   <time name="total">    2.46    2.47</time>
   <energy>
    <i name="e_fr_energy">   -165.37171033 </i>
    <i name="e_wo_entrp">   -165.24499089 </i>
    <i name="e_0_energy">   -165.30835061 </i>
   </energy>
  </scstep>
  <scstep>
   <time name="dav">    2.08    2.09</time>
   <time name="total">    2.19    2.19</time>
   <energy>
    <i name="e_fr_energy">   -165.37163971 </i>
    <i name="e_wo_entrp">   -165.24488903 </i>
    <i name="e_0_energy">   -165.30826437 </i>
   </energy>
  </scstep>
  <scstep>
   <time name="dav">    1.82    1.82</time>
   <time name="total">    1.92    1.92</time>
   <energy>
    <i name="e_fr_energy">   -165.37163167 </i>
    <i name="e_wo_entrp">   -165.24488801 </i>
    <i name="e_0_energy">   -165.30825984 </i>
   </energy>
  </scstep>
  <scstep>
   <time name="dav">    1.07    1.07</time>
   <time name="total">    1.12    1.12</time>
   <energy>
    <i name="alphaZ">    552.45266882 </i>
    <i name="ewald">  -5073.89273949 </i>
    <i name="hartreedc">   -842.23222805 </i>
    <i name="XCdc">   -768.23047472 </i>
    <i name="pawpsdc">   8343.54560976 </i>
    <i name="pawaedc">  -7543.75782680 </i>
    <i name="eentropy">     -0.12672786 </i>
    <i name="bandstr">    479.38586667 </i>
    <i name="atom">   4687.48422623 </i>
    <i name="e_fr_energy">   -165.37162545 </i>
    <i name="e_wo_entrp">   -165.24489759 </i>
    <i name="e_0_energy">   -165.30826152 </i>
   </energy>
  </scstep>
  <structure>
   <crystal>
    <varray name="basis" >
     <v>       7.44800900       0.00000000       0.00000000 </v>
     <v>      -0.75498900       9.53770200       0.00000000 </v>
     <v>       0.28102200       1.63856200       3.64700700 </v>
    </varray>
    <i name="volume">    259.07203631 </i>
    <varray name="rec_basis" >
     <v>       0.13426407       0.01062813      -0.01512089 </v>
     <v>       0.00000000       0.10484706      -0.04710668 </v>
     <v>       0.00000000       0.00000000       0.27419744 </v>
    </varray>
   </crystal>
   <varray name="positions" >
    <v>       0.76538400       0.84335800       0.27062900 </v>
    <v>       0.81145200       0.39141300       0.27071500 </v>
    <v>       0.16882100       0.02957500       0.27073200 </v>
    <v>       0.35971200       0.76567900       0.27067600 </v>
    <v>       0.61567100       0.58430100       0.27066500 </v>
    <v>       0.19390700       0.40998200       0.27064000 </v>
    <v>       0.44238000       0.28042500       0.27084600 </v>
    <v>       0.05008700       0.68823100       0.27062300 </v>
    <v>       0.85633400       0.63123600       0.77059500 </v>
    <v>       0.71525500       0.08328000       0.77040400 </v>
    <v>       0.19471900       0.71805500       0.77065200 </v>
    <v>       0.62805500       0.34489100       0.77077400 </v>
    <v>       0.01129700       0.36090400       0.77059600 </v>
    <v>       0.98233400       0.95308800       0.77063500 </v>
    <v>       0.39921800       0.50140400       0.77064100 </v>
    <v>       0.38948800       0.02975900       0.77076700 </v>
    <v>       0.56188300       0.78001000       0.77062300 </v>
    <v>       0.84449500       0.12204900       0.27033200 </v>
    <v>       0.55023800       0.05030100       0.27065500 </v>
    <v>       0.21840000       0.21178700       0.77060200 </v>
   </varray>
  </structure>
  <varray name="forces" >
   <v>       0.71061330       0.38595244      -0.23147096 </v>
   <v>       1.08484747      -1.08995043       0.60591439 </v>
   <v>      -0.20372880      -0.75765572       1.43991039 </v>
   <v>       1.79266229       1.30063466       0.00027891 </v>
   <v>      -0.93087447      -0.06148111      -0.62843131 </v>
   <v>      -1.48550289       2.15205960      -1.50306494 </v>
   <v>       2.06347325      -0.50189140      -0.08162636 </v>
   <v>      -1.77125064      -1.69554649      -0.21932952 </v>
   <v>      -0.80859011      -0.39606179      -0.23265117 </v>
   <v>       0.02185685       1.11818596      -0.82146725 </v>
   <v>       0.41368981       0.85532257       0.69665058 </v>
   <v>       1.41729191      -1.35444570       0.80431990 </v>
   <v>      -0.96467178       1.07838928       0.55827108 </v>
   <v>       0.91105856      -0.50887397       0.49602737 </v>
   <v>      -1.88484365       0.50913803      -0.68361983 </v>
   <v>      -0.26113799      -1.39064550       0.49687159 </v>
   <v>       0.44308531       0.87640090      -0.36645885 </v>
   <v>       1.62722369       0.70712746      -1.72120868 </v>
   <v>      -1.94747559      -1.58264564       0.19278754 </v>
   <v>      -0.22772650       0.35598684       1.19829715 </v>
  </varray>
  <varray name="stress" >
   <v>     148.73502769    -110.51106392     -36.98239620 </v>
   <v>    -110.51106388      -9.71851632     -43.89392810 </v>
   <v>     -36.98239627     -43.89392806     233.42106733 </v>
  </varray>
  <energy>
   <i name="e_fr_energy">   -165.37162545 </i>
   <i name="e_wo_entrp">   -165.30826152 </i>
   <i name="e_0_energy">     -0.12672786 </i>
  </energy>
  <time name="totalsc">   57.20   57.26</time>
 </calculation>
 <calculation>
  <scstep>
   <time name="dav">    1.34    1.34</time>
   <time name="total">    1.44    1.44</time>
   <energy>
    <i name="alphaZ">    481.48340379 </i>
    <i name="ewald">  -4928.46530025 </i>
    <i name="hartreedc">   -760.66676325 </i>
    <i name="XCdc">   -774.90949587 </i>
    <i name="pawpsdc">   8343.60236224 </i>
    <i name="pawaedc">  -7543.81469984 </i>
    <i name="eentropy">     -0.17048691 </i>
    <i name="bandstr">    318.18708027 </i>
    <i name="atom">   4687.48422623 </i>
    <i name="e_fr_energy">   -177.26967360 </i>
    <i name="e_wo_entrp">   -177.09918668 </i>
    <i name="e_0_energy">   -177.18443014 </i>
   </energy>
  </scstep>
  <scstep>
   <time name="dav">    1.98    1.98</time>
   <time name="total">    2.08    2.08</time>
   <energy>
    <i name="e_fr_energy">   -315.52707809 </i>
    <i name="e_wo_entrp">   -315.43481246 </i>
    <i name="e_0_energy">   -315.48094528 </i>
   </energy>
  </scstep>
  <scstep>
   <time name="dav">    2.16    2.16</time>
   <time name="total">    2.26    2.26</time>
   <energy>
    <i name="e_fr_energy">   -168.31463099 </i>
    <i name="e_wo_entrp">   -168.18246709 </i>
    <i name="e_0_energy">   -168.24854904 </i>
   </energy>
  </scstep>
  <scstep>
   <time name="dav">    2.45    2.45</time>
   <time name="total">    2.55    2.56</time>
   <energy>
    <i name="e_fr_energy">   -179.04523179 </i>
    <i name="e_wo_entrp">   -178.91901111 </i>
    <i name="e_0_energy">   -178.98212145 </i>
   </energy>
  </scstep>
  <scstep>
   <time name="dav">    2.39    2.40</time>
   <time name="total">    2.49    2.50</time>
   <energy>
    <i name="e_fr_energy">   -170.81531801 </i>
    <i name="e_wo_entrp">   -170.66218638 </i>
    <i name="e_0_energy">   -170.73875219 </i>
   </energy>
  </scstep>
  <scstep>
   <time name="dav">    2.18    2.18</time>
   <time name="total">    2.28    2.28</time>
   <energy>
    <i name="e_fr_energy">   -169.54408368 </i>
    <i name="e_wo_entrp">   -169.40237765 </i>
    <i name="e_0_energy">   -169.47323066 </i>
   </energy>
  </scstep>
  <scstep>
   <time name="dav">    2.31    2.32</time>
   <time name="total">    2.41    2.42</time>
   <energy>
    <i name="e_fr_energy">   -171.03642309 </i>
    <i name="e_wo_entrp">   -170.89856808 </i>
    <i name="e_0_energy">   -170.96749558 </i>
   </energy>
  </scstep>
  <scstep>
   <time name="dav">    2.41    2.42</time>
   <time name="total">    2.52    2.52</time>
   <energy>
    <i name="e_fr_energy">   -170.24733191 </i>
    <i name="e_wo_entrp">   -170.09551380 </i>
    <i name="e_0_energy">   -170.17142286 </i>
   </energy>
  </scstep>
  <scstep>
   <time name="dav">    2.36    2.36</time>
   <time name="total">    2.46    2.46</time>
   <energy>
    <i name="e_fr_energy">   -169.12999844 </i>
    <i name="e_wo_entrp">   -168.97941594 </i>
    <i name="e_0_energy">   -169.05470719 </i>
   </energy>
  </scstep>
  <scstep>
   <time name="dav">    2.45    2.46</time>
   <time name="total">    2.55    2.56</time>
   <energy>
    <i name="e_fr_energy">   -168.83204102 </i>
    <i name="e_wo_entrp">   -168.68397219 </i>
    <i name="e_0_energy">   -168.75800660 </i>
   </energy>
  </scstep>
  <scstep>
   <time name="dav">    2.43    2.43</time>
   <time name="total">    2.53    2.53</time>
   <energy>
    <i name="e_fr_energy">   -168.77669687 </i>
    <i name="e_wo_entrp">   -168.62669533 </i>
    <i name="e_0_energy">   -168.70169610 </i>
   </energy>
  </scstep>
  <scstep>
   <time name="dav">    2.36    2.37</time>
   <time name="total">    2.46    2.47</time>
   <energy>
    <i name="e_fr_energy">   -168.63645973 </i>
    <i name="e_wo_entrp">   -168.48781671 </i>
    <i name="e_0_energy">   -168.56213822 </i>
   </energy>
  </scstep>
  <scstep>
   <time name="dav">    2.17    2.17</time>
   <time name="total">    2.27    2.27</time>
   <energy>
    <i name="e_fr_energy">   -168.66150756 </i>
    <i name="e_wo_entrp">   -168.50785568 </i>
    <i name="e_0_energy">   -168.58468162 </i>
   </energy>
  </scstep>
  <scstep>
   <time name="dav">    1.95    1.95</time>
   <time name="total">    2.05    2.06</time>
   <energy>
    <i name="e_fr_energy">   -168.56408249 </i>
    <i name="e_wo_entrp">   -168.41582165 </i>
    <i name="e_0_energy">   -168.48995207 </i>
   </energy>
  </scstep>
  <scstep>
   <time name="dav">    2.07    2.07</time>
   <time name="total">    2.17    2.18</time>
   <energy>
    <i name="e_fr_energy">   -168.56441105 </i>
    <i name="e_wo_entrp">   -168.41597103 </i>
    <i name="e_0_energy">   -168.49019104 </i>
   </energy>
  </scstep>
  <scstep>
   <time name="dav">    2.38    2.38</time>
   <time name="total">    2.48    2.48</time>
   <energy>
    <i name="e_fr_energy">   -168.56117958 </i>
    <i name="e_wo_entrp">   -168.41262424 </i>
    <i name="e_0_energy">   -168.48690191 </i>
   </energy>
  </scstep>
  <scstep>
   <time name="dav">    1.98    1.98</time>
   <time name="total">    2.08    2.08</time>
   <energy>
    <i name="e_fr_energy">   -168.56203072 </i>
    <i name="e_wo_entrp">   -168.41351667 </i>
    <i name="e_0_energy">   -168.48777370 </i>
   </energy>
  </scstep>
  <scstep>
   <time name="dav">    2.16    2.16</time>
   <time name="total">    2.26    2.26</time>
   <energy>
    <i name="e_fr_energy">   -168.56119281 </i>
    <i name="e_wo_entrp">   -168.41239786 </i>
    <i name="e_0_energy">   -168.48679533 </i>
   </energy>
  </scstep>
  <scstep>
   <time name="dav">    2.04    2.04</time>
   <time name="total">    2.15    2.15</time>
   <energy>
    <i name="e_fr_energy">   -168.56122896 </i>
    <i name="e_wo_entrp">   -168.41266338 </i>
    <i name="e_0_energy">   -168.48694617 </i>
   </energy>
  </scstep>
  <scstep>
   <time name="dav">    1.99    1.99</time>
   <time name="total">    2.09    2.10</time>
   <energy>
    <i name="e_fr_energy">   -168.56100385 </i>
    <i name="e_wo_entrp">   -168.41238293 </i>
    <i name="e_0_energy">   -168.48669339 </i>
   </energy>
  </scstep>
  <scstep>
   <time name="dav">    1.99    1.99</time>
   <time name="total">    2.09    2.09</time>
   <energy>
    <i name="e_fr_energy">   -168.56101879 </i>
    <i name="e_wo_entrp">   -168.41244153 </i>
    <i name="e_0_energy">   -168.48673016 </i>
   </energy>
  </scstep>
  <scstep>
   <time name="dav">    1.47    1.47</time>
   <time name="total">    1.51    1.52</time>
   <energy>
    <i name="alphaZ">    481.48340379 </i>
    <i name="ewald">  -4928.46530025 </i>
    <i name="hartreedc">   -820.38792186 </i>
    <i name="XCdc">   -774.37660913 </i>
    <i name="pawpsdc">   6939.74478395 </i>
    <i name="pawaedc">  -6130.69834429 </i>
    <i name="eentropy">     -0.14857801 </i>
    <i name="bandstr">    376.80333012 </i>
    <i name="atom">   4687.48422623 </i>
    <i name="e_fr_energy">   -168.56100946 </i>
    <i name="e_wo_entrp">   -168.41243144 </i>
    <i name="e_0_energy">   -168.48672045 </i>
   </energy>
  </scstep>
  <structure>
   <crystal>
    <varray name="basis" >
     <v>       7.88008944      -0.32103849      -0.10743515 </v>
     <v>      -1.20990057       9.53409112      -0.15239944 </v>
     <v>       0.17408952       1.55779921       3.94693841 </v>
    </varray>
    <i name="volume">    297.25850725 </i>
    <varray name="rec_basis" >
     <v>       0.12739039       0.01597556      -0.01192419 </v>
     <v>       0.00369966       0.10469316      -0.04148405 </v>
     <v>       0.00361040       0.00447727       0.25143457 </v>
    </varray>
   </crystal>
   <varray name="positions" >
    <v>       0.77035356       0.84583622       0.26756710 </v>
    <v>       0.81747799       0.38452295       0.27873004 </v>
    <v>       0.16606255       0.02247043       0.28977915 </v>
    <v>       0.37199020       0.77225711       0.27067969 </v>
    <v>       0.61006839       0.58541816       0.26235210 </v>
    <v>       0.18648489       0.42428313       0.25075744 </v>
    <v>       0.45554785       0.27807188       0.26976625 </v>
    <v>       0.03790480       0.68015319       0.26772171 </v>
    <v>       0.85106320       0.62976139       0.76751749 </v>
    <v>       0.71656914       0.09080272       0.75953762 </v>
    <v>       0.19732894       0.72079813       0.77986730 </v>
    <v>       0.63595397       0.33621222       0.78141355 </v>
    <v>       0.00519425       0.36508990       0.77798082 </v>
    <v>       0.98761241       0.94938682       0.77719646 </v>
    <v>       0.38776912       0.50553283       0.76159807 </v>
    <v>       0.38672106       0.02159581       0.77733962 </v>
    <v>       0.56546965       0.78527572       0.76577548 </v>
    <v>       0.85665308       0.12953726       0.24756383 </v>
    <v>       0.53667160       0.04185770       0.27320520 </v>
    <v>       0.21623336       0.21086443       0.78645309 </v>
   </varray>
  </structure>
  <varray name="forces" >
   <v>       0.65206440       0.40815512      -0.32142820 </v>
   <v>      -0.08061900      -0.25142045       0.40608129 </v>
   <v>      -0.28374836      -0.02440530       0.18291188 </v>
   <v>       0.66356269       0.09979689      -0.04802306 </v>
   <v>      -0.25799722      -0.32637287      -0.25086144 </v>
   <v>       0.18553710       0.47569201      -0.24697946 </v>
   <v>       0.14757107      -0.30568988       0.41076803 </v>
   <v>      -0.49346897      -0.39234160      -0.02338750 </v>
   <v>      -0.75039526      -0.16054326       0.07096399 </v>
   <v>       0.35990548       0.16258925      -0.50495014 </v>
   <v>      -0.21072152       0.07843965       0.22695979 </v>
   <v>      -0.01618312      -0.12823705       0.34680216 </v>
   <v>       0.23103768       0.06595397       0.00012581 </v>
   <v>      -0.07060009      -0.13415800       0.08373791 </v>
   <v>      -0.35553690      -0.17703887      -0.24164322 </v>
   <v>      -0.57086697       0.13880766       0.08979424 </v>
   <v>       0.37045940       0.33912261      -0.17415967 </v>
   <v>       0.48771039       0.10421529      -0.31399086 </v>
   <v>      -0.13829886      -0.28105568       0.12745192 </v>
   <v>       0.13058808       0.30849054       0.17982652 </v>
  </varray>
  <varray name="stress" >
   <v>    -153.53607719     -16.88492851       6.74053396 </v>
   <v>     -16.88492849    -211.39021909     -20.35661086 </v>
   <v>       6.74053405     -20.35661104    -125.08015778 </v>
  </varray>
  <energy>
   <i name="e_fr_energy">   -168.56100946 </i>
   <i name="e_wo_entrp">   -168.48672045 </i>
   <i name="e_0_energy">     -0.14857801 </i>
  </energy>
  <time name="totalsc">   51.83   51.89</time>
 </calculation>
 <calculation>
  <scstep>
   <time name="dav">    1.37    1.37</time>
   <time name="total">    1.47    1.47</time>
   <energy>
    <i name="alphaZ">    497.82997978 </i>
    <i name="ewald">  -4968.65141051 </i>
    <i name="hartreedc">   -837.94478189 </i>
    <i name="XCdc">   -772.43998203 </i>
    <i name="pawpsdc">   6939.82351438 </i>
    <i name="pawaedc">  -6130.77777616 </i>
    <i name="eentropy">     -0.13784590 </i>
    <i name="bandstr">    415.14808774 </i>
    <i name="atom">   4687.48422623 </i>
    <i name="e_fr_energy">   -169.66598835 </i>
    <i name="e_wo_entrp">   -169.52814245 </i>
    <i name="e_0_energy">   -169.59706540 </i>
   </energy>
  </scstep>
  <scstep>
   <time name="dav">    2.21    2.22</time>
   <time name="total">    2.31    2.32</time>
   <energy>
    <i name="e_fr_energy">   -194.47268294 </i>
    <i name="e_wo_entrp">   -194.33075919 </i>
    <i name="e_0_energy">   -194.40172106 </i>
   </energy>
  </scstep>
  <scstep>
   <time name="dav">    2.26    2.27</time>
   <time name="total">    2.37    2.37</time>
   <energy>
    <i name="e_fr_energy">   -169.54232984 </i>
    <i name="e_wo_entrp">   -169.40665439 </i>
    <i name="e_0_energy">   -169.47449211 </i>
   </energy>
  </scstep>
  <scstep>
   <time name="dav">    2.34    2.34</time>
   <time name="total">    2.44    2.45</time>
   <energy>
    <i name="e_fr_energy">   -169.40638110 </i>
    <i name="e_wo_entrp">   -169.26502609 </i>
    <i name="e_0_energy">   -169.33570359 </i>
   </energy>
  </scstep>
  <scstep>
   <time name="dav">    2.17    2.18</time>
   <time name="total">    2.28    2.28</time>
   <energy>
    <i name="e_fr_energy">   -169.11688537 </i>
    <i name="e_wo_entrp">   -168.97558380 </i>
    <i name="e_0_energy">   -169.04623459 </i>
   </energy>
  </scstep>
  <scstep>
   <time name="dav">    2.29    2.29</time>
   <time name="total">    2.39    2.40</time>
   <energy>
    <i name="e_fr_energy">   -168.97598033 </i>
    <i name="e_wo_entrp">   -168.83236404 </i>
    <i name="e_0_energy">   -168.90417219 </i>
   </energy>
  </scstep>
  <scstep>
   <time name="dav">    2.43    2.44</time>
   <time name="total">    2.54    2.54</time>
   <energy>
    <i name="e_fr_energy">   -168.92650870 </i>
    <i name="e_wo_entrp">   -168.78203466 </i>
    <i name="e_0_energy">   -168.85427168 </i>
   </energy>
  </scstep>
  <scstep>
   <time name="dav">    2.40    2.41</time>
   <time name="total">    2.51    2.51</time>
   <energy>
    <i name="e_fr_energy">   -168.88006570 </i>
    <i name="e_wo_entrp">   -168.73776619 </i>
    <i name="e_0_energy">   -168.80891595 </i>
   </energy>
  </scstep>
  <scstep>
   <time name="dav">    2.32    2.33</time>
   <time name="total">    2.43    2.43</time>
   <energy>
    <i name="e_fr_energy">   -168.88701846 </i>
    <i name="e_wo_entrp">   -168.74397602 </i>
    <i name="e_0_energy">   -168.81549724 </i>
   </energy>
  </scstep>
  <scstep>
   <time name="dav">    2.31    2.31</time>
   <time name="total">    2.41    2.42</time>
   <energy>
    <i name="e_fr_energy">   -168.86999800 </i>
    <i name="e_wo_entrp">   -168.72661932 </i>
    <i name="e_0_energy">   -168.79830866 </i>
   </energy>
  </scstep>
  <scstep>
   <time name="dav">    2.33    2.33</time>
   <time name="total">    2.43    2.43</time>
   <energy>
    <i name="e_fr_energy">   -168.86601174 </i>
    <i name="e_wo_entrp">   -168.72266270 </i>
    <i name="e_0_energy">   -168.79433722 </i>
   </energy>
  </scstep>
  <scstep>
   <time name="dav">    2.39    2.39</time>
   <time name="total">    2.49    2.49</time>
   <energy>
    <i name="e_fr_energy">   -168.85826968 </i>
    <i name="e_wo_entrp">   -168.71465383 </i>
    <i name="e_0_energy">   -168.78646176 </i>
   </energy>
  </scstep>
  <scstep>
   <time name="dav">    2.07    2.07</time>
   <time name="total">    2.17    2.17</time>
   <energy>
    <i name="e_fr_energy">   -168.85785506 </i>
    <i name="e_wo_entrp">   -168.71437213 </i>
    <i name="e_0_energy">   -168.78611360 </i>
   </energy>
  </scstep>
  <scstep>
   <time name="dav">    2.36    2.37</time>
   <time name="total">    2.46    2.47</time>
   <energy>
    <i name="e_fr_energy">   -168.85721476 </i>
    <i name="e_wo_entrp">   -168.71366091 </i>
    <i name="e_0_energy">   -168.78543783 </i>
   </energy>
  </scstep>
  <scstep>
   <time name="dav">    2.25    2.25</time>
   <time name="total">    2.35    2.35</time>
   <energy>
    <i name="e_fr_energy">   -168.85704631 </i>
    <i name="e_wo_entrp">   -168.71343836 </i>
    <i name="e_0_energy">   -168.78524234 </i>
   </energy>
  </scstep>
  <scstep>
   <time name="dav">    2.41    2.41</time>
   <time name="total">    2.51    2.51</time>
   <energy>
    <i name="e_fr_energy">   -168.85682890 </i>
    <i name="e_wo_entrp">   -168.71320598 </i>
    <i name="e_0_energy">   -168.78501744 </i>
   </energy>
  </scstep>
  <scstep>
   <time name="dav">    2.02    2.02</time>
   <time name="total">    2.12    2.12</time>
   <energy>
    <i name="e_fr_energy">   -168.85680302 </i>
    <i name="e_wo_entrp">   -168.71314941 </i>
    <i name="e_0_energy">   -168.78497621 </i>
   </energy>
  </scstep>
  <scstep>
   <time name="dav">    1.39    1.40</time>
   <time name="total">    1.50    1.50</time>
   <energy>
    <i name="e_fr_energy">   -168.85678089 </i>
    <i name="e_wo_entrp">   -168.71312389 </i>
    <i name="e_0_energy">   -168.78495239 </i>
   </energy>
  </scstep>
  <scstep>
   <time name="dav">    1.19    1.19</time>
   <time name="total">    1.23    1.23</time>
   <energy>
    <i name="alphaZ">    497.82997978 </i>
    <i name="ewald">  -4968.65141051 </i>
    <i name="hartreedc">   -820.75211946 </i>
    <i name="XCdc">   -772.88077779 </i>
    <i name="pawpsdc">   7213.33877880 </i>
    <i name="pawaedc">  -6406.34802693 </i>
    <i name="eentropy">     -0.14366159 </i>
    <i name="bandstr">    401.26623374 </i>
    <i name="atom">   4687.48422623 </i>
    <i name="e_fr_energy">   -168.85677773 </i>
    <i name="e_wo_entrp">   -168.71311614 </i>
    <i name="e_0_energy">   -168.78494694 </i>
   </energy>
  </scstep>
  <structure>
   <crystal>
    <varray name="basis" >
     <v>       7.77073421      -0.23978687      -0.08024439 </v>
     <v>      -1.09476701       9.53500500      -0.11382867 </v>
     <v>       0.20115306       1.57823946       3.87102878 </v>
    </varray>
    <i name="volume">    287.49782795 </i>
    <varray name="rec_basis" >
     <v>       0.12900942       0.01466090      -0.01268114 </v>
     <v>       0.00278811       0.10468558      -0.04282576 </v>
     <v>       0.00275628       0.00338222       0.25680708 </v>
    </varray>
   </crystal>
   <varray name="positions" >
    <v>       0.76913929       0.84519352       0.26822528 </v>
    <v>       0.81609143       0.38617410       0.27688168 </v>
    <v>       0.16673686       0.02417745       0.28540910 </v>
    <v>       0.36894823       0.77051370       0.27052871 </v>
    <v>       0.61143677       0.58522050       0.26432575 </v>
    <v>       0.18815683       0.42083799       0.25531961 </v>
    <v>       0.45242433       0.27857888       0.26995331 </v>
    <v>       0.04095860       0.68228949       0.26856581 </v>
    <v>       0.85236426       0.63018635       0.76828901 </v>
    <v>       0.71619743       0.08895631       0.76199739 </v>
    <v>       0.19662007       0.72003897       0.77766363 </v>
    <v>       0.63413081       0.33828695       0.77895590 </v>
    <v>       0.00656564       0.36403777       0.77625053 </v>
    <v>       0.98636682       0.95024739       0.77566133 </v>
    <v>       0.39050197       0.50462090       0.76375200 </v>
    <v>       0.38747083       0.02363690       0.77590179 </v>
    <v>       0.56455618       0.78394981       0.76683305 </v>
    <v>       0.85373357       0.12768804       0.25273747 </v>
    <v>       0.54003749       0.04406638       0.27278571 </v>
    <v>       0.21669259       0.21102661       0.78276496 </v>
   </varray>
  </structure>
  <varray name="forces" >
   <v>       0.68261859       0.44778803      -0.31648811 </v>
   <v>       0.14915432      -0.38235193       0.45252563 </v>
   <v>      -0.29070316      -0.14241617       0.38037859 </v>
   <v>       0.87245571       0.37332351      -0.03303979 </v>
   <v>      -0.35741250      -0.34974165      -0.32191104 </v>
   <v>      -0.03219160       0.71853682      -0.45028017 </v>
   <v>       0.39270853      -0.28868885       0.37383191 </v>
   <v>      -0.72622123      -0.64300127      -0.08411726 </v>
   <v>      -0.81924936      -0.24587085       0.04468016 </v>
   <v>       0.34236238       0.33229608      -0.62052686 </v>
   <v>      -0.11230848       0.24380804       0.30836822 </v>
   <v>       0.17253087      -0.28880245       0.40865337 </v>
   <v>       0.05082014       0.22319621       0.09013838 </v>
   <v>       0.05791051      -0.21421320       0.18674963 </v>
   <v>      -0.62127020      -0.13080194      -0.32070529 </v>
   <v>      -0.54629804      -0.14743967       0.19239130 </v>
   <v>       0.37901238       0.47803292      -0.21254717 </v>
   <v>       0.71886638       0.19064552      -0.47414232 </v>
   <v>      -0.45384286      -0.56367913       0.14210439 </v>
   <v>       0.14105763       0.38937997       0.25393643 </v>
  </varray>
  <varray name="stress" >
   <v>     -94.77984203     -34.35545674       0.39779984 </v>
   <v>     -34.35545657    -173.65372273     -24.49289744 </v>
   <v>       0.39779984     -24.49289756     -54.83653600 </v>
  </varray>
  <energy>
   <i name="e_fr_energy">   -168.85677773 </i>
   <i name="e_wo_entrp">   -168.78494694 </i>
   <i name="e_0_energy">     -0.14366159 </i>
  </energy>
  <time name="totalsc">   44.96   45.01</time>
 </calculation>
 <calculation>
  <scstep>
   <time name="dav">    1.33    1.34</time>
   <time name="total">    1.44    1.44</time>
   <energy>
    <i name="alphaZ">    539.67249914 </i>
    <i name="ewald">  -5143.57049731 </i>
    <i name="hartreedc">   -819.60599765 </i>
    <i name="XCdc">   -767.38855660 </i>
    <i name="pawpsdc">   7213.33758117 </i>
    <i name="pawaedc">  -6406.34472856 </i>
    <i name="eentropy">     -0.12314387 </i>
    <i name="bandstr">    518.94799243 </i>
    <i name="atom">   4687.48422623 </i>
    <i name="e_fr_energy">   -177.59062505 </i>
    <i name="e_wo_entrp">   -177.46748118 </i>
    <i name="e_0_energy">   -177.52905311 </i>
   </energy>
  </scstep>
  <scstep>
   <time name="dav">    1.98    1.98</time>
   <time name="total">    2.08    2.08</time>
   <energy>
    <i name="e_fr_energy">   -246.51867759 </i>
    <i name="e_wo_entrp">   -246.41241143 </i>
    <i name="e_0_energy">   -246.46554451 </i>
   </energy>
  </scstep>
  <scstep>
   <time name="dav">    2.21    2.22</time>
   <time name="total">    2.32    2.32</time>
   <energy>
    <i name="e_fr_energy">   -190.38349061 </i>
    <i name="e_wo_entrp">   -190.25004231 </i>
    <i name="e_0_energy">   -190.31676646 </i>
   </energy>
  </scstep>
  <scstep>
   <time name="dav">    2.42    2.43</time>
   <time name="total">    2.52    2.53</time>
   <energy>
    <i name="e_fr_energy">   -173.16295284 </i>
    <i name="e_wo_entrp">   -173.02738429 </i>
    <i name="e_0_energy">   -173.09516857 </i>
   </energy>
  </scstep>
  <scstep>
   <time name="dav">    2.17    2.17</time>
   <time name="total">    2.27    2.27</time>
   <energy>
    <i name="e_fr_energy">   -172.17871395 </i>
    <i name="e_wo_entrp">   -172.06093817 </i>
    <i name="e_0_energy">   -172.11982606 </i>
   </energy>
  </scstep>
  <scstep>
   <time name="dav">    2.24    2.24</time>
   <time name="total">    2.34    2.34</time>
   <energy>
    <i name="e_fr_energy">   -173.39199612 </i>
    <i name="e_wo_entrp">   -173.27430233 </i>
    <i name="e_0_energy">   -173.33314923 </i>
   </energy>
  </scstep>
  <scstep>
   <time name="dav">    2.33    2.34</time>
   <time name="total">    2.43    2.44</time>
   <energy>
    <i name="e_fr_energy">   -171.65390557 </i>
    <i name="e_wo_entrp">   -171.52942128 </i>
    <i name="e_0_energy">   -171.59166342 </i>
   </energy>
  </scstep>
  <scstep>
   <time name="dav">    2.26    2.26</time>
   <time name="total">    2.36    2.36</time>
   <energy>
    <i name="e_fr_energy">   -171.62675843 </i>
    <i name="e_wo_entrp">   -171.50645977 </i>
    <i name="e_0_energy">   -171.56660910 </i>
   </energy>
  </scstep>
  <scstep>
   <time name="dav">    2.36    2.36</time>
   <time name="total">    2.46    2.46</time>
   <energy>
    <i name="e_fr_energy">   -171.54029158 </i>
    <i name="e_wo_entrp">   -171.41317916 </i>
    <i name="e_0_energy">   -171.47673537 </i>
   </energy>
  </scstep>
  <scstep>
   <time name="dav">    2.38    2.38</time>
   <time name="total">    2.48    2.48</time>
   <energy>
    <i name="e_fr_energy">   -171.51546387 </i>
    <i name="e_wo_entrp">   -171.39210878 </i>
    <i name="e_0_energy">   -171.45378632 </i>
   </energy>
  </scstep>
  <scstep>
   <time name="dav">    2.40    2.40</time>
   <time name="total">    2.50    2.50</time>
   <energy>
    <i name="e_fr_energy">   -171.51573860 </i>
    <i name="e_wo_entrp">   -171.39179166 </i>
    <i name="e_0_energy">   -171.45376513 </i>
   </energy>
  </scstep>
  <scstep>
   <time name="dav">    2.25    2.25</time>
   <time name="total">    2.35    2.35</time>
   <energy>
    <i name="e_fr_energy">   -171.50775570 </i>
    <i name="e_wo_entrp">   -171.38436496 </i>
    <i name="e_0_energy">   -171.44606033 </i>
   </energy>
  </scstep>
  <scstep>
   <time name="dav">    2.35    2.35</time>
   <time name="total">    2.45    2.46</time>
   <energy>
    <i name="e_fr_energy">   -171.49800226 </i>
    <i name="e_wo_entrp">   -171.37408199 </i>
    <i name="e_0_energy">   -171.43604212 </i>
   </energy>
  </scstep>
  <scstep>
   <time name="dav">    2.43    2.43</time>
   <time name="total">    2.54    2.54</time>
   <energy>
    <i name="e_fr_energy">   -171.49283922 </i>
    <i name="e_wo_entrp">   -171.36888362 </i>
    <i name="e_0_energy">   -171.43086142 </i>
   </energy>
  </scstep>
  <scstep>
   <time name="dav">    2.31    2.31</time>
   <time name="total">    2.41    2.42</time>
   <energy>
    <i name="e_fr_energy">   -171.49198990 </i>
    <i name="e_wo_entrp">   -171.36805308 </i>
    <i name="e_0_energy">   -171.43002149 </i>
   </energy>
  </scstep>
  <scstep>
   <time name="dav">    2.38    2.39</time>
   <time name="total">    2.49    2.49</time>
   <energy>
    <i name="e_fr_energy">   -171.49127370 </i>
    <i name="e_wo_entrp">   -171.36731781 </i>
    <i name="e_0_energy">   -171.42929575 </i>
   </energy>
  </scstep>
  <scstep>
   <time name="dav">    2.44    2.44</time>
   <time name="total">    2.54    2.55</time>
   <energy>
    <i name="e_fr_energy">   -171.49041198 </i>
    <i name="e_wo_entrp">   -171.36636219 </i>
    <i name="e_0_energy">   -171.42838709 </i>
   </energy>
  </scstep>
  <scstep>
   <time name="dav">    2.39    2.39</time>
   <time name="total">    2.49    2.49</time>
   <energy>
    <i name="e_fr_energy">   -171.49013316 </i>
    <i name="e_wo_entrp">   -171.36616744 </i>
    <i name="e_0_energy">   -171.42815030 </i>
   </energy>
  </scstep>
  <scstep>
   <time name="dav">    2.50    2.50</time>
   <time name="total">    2.61    2.61</time>
   <energy>
    <i name="e_fr_energy">   -171.48988295 </i>
    <i name="e_wo_entrp">   -171.36585492 </i>
    <i name="e_0_energy">   -171.42786893 </i>
   </energy>
  </scstep>
  <scstep>
   <time name="dav">    2.07    2.07</time>
   <time name="total">    2.17    2.17</time>
   <energy>
    <i name="e_fr_energy">   -171.48984019 </i>
    <i name="e_wo_entrp">   -171.36581858 </i>
    <i name="e_0_energy">   -171.42782939 </i>
   </energy>
  </scstep>
  <scstep>
   <time name="dav">    2.36    2.36</time>
   <time name="total">    2.46    2.46</time>
   <energy>
    <i name="e_fr_energy">   -171.48975707 </i>
    <i name="e_wo_entrp">   -171.36571632 </i>
    <i name="e_0_energy">   -171.42773669 </i>
   </energy>
  </scstep>
  <scstep>
   <time name="dav">    1.34    1.34</time>
   <time name="total">    1.44    1.44</time>
   <energy>
    <i name="e_fr_energy">   -171.48974590 </i>
    <i name="e_wo_entrp">   -171.36571675 </i>
    <i name="e_0_energy">   -171.42773132 </i>
   </energy>
  </scstep>
  <scstep>
   <time name="dav">    1.05    1.05</time>
   <time name="total">    1.10    1.10</time>
   <energy>
    <i name="alphaZ">    539.67249914 </i>
    <i name="ewald">  -5143.57049731 </i>
    <i name="hartreedc">   -756.42901766 </i>
    <i name="XCdc">   -769.57363761 </i>
    <i name="pawpsdc">   7696.36568334 </i>
    <i name="pawaedc">  -6893.38313227 </i>
    <i name="eentropy">     -0.12404903 </i>
    <i name="bandstr">    468.06818622 </i>
    <i name="atom">   4687.48422623 </i>
    <i name="e_fr_energy">   -171.48973896 </i>
    <i name="e_wo_entrp">   -171.36568993 </i>
    <i name="e_0_energy">   -171.42771444 </i>
   </energy>
  </scstep>
  <structure>
   <crystal>
    <varray name="basis" >
     <v>       7.65133822      -0.46101672      -0.11961343 </v>
     <v>      -1.37075549       8.87625145      -0.26881852 </v>
     <v>       0.12801323       1.39232693       3.89344056 </v>
    </varray>
    <i name="volume">    265.20721013 </i>
    <varray name="rec_basis" >
     <v>       0.13172131       0.01999396      -0.01148090 </v>
     <v>       0.00614011       0.11238511      -0.04039174 </v>
     <v>       0.00447065       0.00837376       0.25370072 </v>
    </varray>
   </crystal>
   <varray name="positions" >
    <v>       0.77553943       0.84903018       0.26360372 </v>
    <v>       0.81863618       0.38090007       0.28507173 </v>
    <v>       0.16365796       0.02005428       0.29670709 </v>
    <v>       0.37907243       0.77512940       0.27048474 </v>
    <v>       0.60715539       0.58446504       0.25735860 </v>
    <v>       0.18606321       0.43052189       0.24294461 </v>
    <v>       0.45921225       0.27569895       0.27403656 </v>
    <v>       0.03158074       0.67603041       0.26612852 </v>
    <v>       0.84532069       0.62818163       0.76748450 </v>
    <v>       0.71936011       0.09466932       0.75090555 </v>
    <v>       0.19701249       0.72173118       0.78474829 </v>
    <v>       0.63758705       0.33288862       0.78760423 </v>
    <v>       0.00479115       0.36655749       0.78006154 </v>
    <v>       0.98840491       0.94751031       0.78023804 </v>
    <v>       0.38266776       0.50599490       0.75652046 </v>
    <v>       0.38289876       0.01933694       0.78036635 </v>
    <v>       0.56864156       0.78874715       0.76276695 </v>
    <v>       0.86292959       0.13248239       0.23911254 </v>
    <v>       0.53169710       0.03766002       0.27504066 </v>
    <v>       0.21690126       0.21213780       0.79161734 </v>
   </varray>
  </structure>
  <varray name="forces" >
   <v>       0.69295862       0.46129863      -0.18050815 </v>
   <v>      -0.37239723       0.20972041       0.36831542 </v>
   <v>      -0.37543262      -0.01242284       0.23514367 </v>
   <v>       0.26504850      -0.46043455       0.03964871 </v>
   <v>      -0.23726652      -0.49277615      -0.11431570 </v>
   <v>       0.59846412       0.04047436       0.10225255 </v>
   <v>      -0.50884555      -0.13237401       0.52972198 </v>
   <v>      -0.48201387      -0.04310109       0.29697788 </v>
   <v>      -0.83722407      -0.06114836      -0.01012968 </v>
   <v>       0.49810793      -0.31284515      -0.20314448 </v>
   <v>      -0.31300993      -0.17234520      -0.06207829 </v>
   <v>      -0.47546087       0.19648290       0.35862327 </v>
   <v>       0.58693042       0.16746508      -0.37759580 </v>
   <v>      -0.25708463      -0.02530623      -0.14563539 </v>
   <v>       0.17022945      -0.32830830      -0.37723151 </v>
   <v>      -1.00091666       0.51822404       0.07546047 </v>
   <v>       0.66811300       0.08047928      -0.10585013 </v>
   <v>       0.91215591       0.08563099      -0.39565268 </v>
   <v>       0.56523944      -0.02173854      -0.02754498 </v>
   <v>      -0.09759545       0.30302471      -0.00645715 </v>
  </varray>
  <varray name="stress" >
   <v>       2.53506721      -5.87080318      11.99783135 </v>
   <v>      -5.87080318     -54.70886812     -37.11955654 </v>
   <v>      11.99783151     -37.11955654      35.73915586 </v>
  </varray>
  <energy>
   <i name="e_fr_energy">   -171.48973896 </i>
   <i name="e_wo_entrp">   -171.42771444 </i>
   <i name="e_0_energy">     -0.12404903 </i>
  </energy>
  <time name="totalsc">   54.88   54.96</time>
 </calculation>
 <calculation>
  <scstep>
   <time name="dav">    1.38    1.38</time>
   <time name="total">    1.48    1.48</time>
   <energy>
    <i name="alphaZ">    553.52743051 </i>
    <i name="ewald">  -5193.97394751 </i>
    <i name="hartreedc">   -758.77890955 </i>
    <i name="XCdc">   -767.96523359 </i>
    <i name="pawpsdc">   7696.29393974 </i>
    <i name="pawaedc">  -6893.31141345 </i>
    <i name="eentropy">     -0.12642032 </i>
    <i name="bandstr">    504.60518415 </i>
    <i name="atom">   4687.48422623 </i>
    <i name="e_fr_energy">   -172.24514378 </i>
    <i name="e_wo_entrp">   -172.11872346 </i>
    <i name="e_0_energy">   -172.18193362 </i>
   </energy>
  </scstep>
  <scstep>
   <time name="dav">    2.39    2.39</time>
   <time name="total">    2.49    2.49</time>
   <energy>
    <i name="e_fr_energy">   -184.56818577 </i>
    <i name="e_wo_entrp">   -184.42246299 </i>
    <i name="e_0_energy">   -184.49532438 </i>
   </energy>
  </scstep>
  <scstep>
   <time name="dav">    2.26    2.27</time>
   <time name="total">    2.36    2.37</time>
   <energy>
    <i name="e_fr_energy">   -171.65866279 </i>
    <i name="e_wo_entrp">   -171.54011735 </i>
    <i name="e_0_energy">   -171.59939007 </i>
   </energy>
  </scstep>
  <scstep>
   <time name="dav">    2.33    2.34</time>
   <time name="total">    2.44    2.44</time>
   <energy>
    <i name="e_fr_energy">   -171.96891714 </i>
    <i name="e_wo_entrp">   -171.83997271 </i>
    <i name="e_0_energy">   -171.90444492 </i>
   </energy>
  </scstep>
  <scstep>
   <time name="dav">    2.13    2.13</time>
   <time name="total">    2.23    2.24</time>
   <energy>
    <i name="e_fr_energy">   -171.90006721 </i>
    <i name="e_wo_entrp">   -171.77804435 </i>
    <i name="e_0_energy">   -171.83905578 </i>
   </energy>
  </scstep>
  <scstep>
   <time name="dav">    2.18    2.18</time>
   <time name="total">    2.28    2.28</time>
   <energy>
    <i name="e_fr_energy">   -171.77336534 </i>
    <i name="e_wo_entrp">   -171.64990329 </i>
    <i name="e_0_energy">   -171.71163432 </i>
   </energy>
  </scstep>
  <scstep>
   <time name="dav">    2.37    2.37</time>
   <time name="total">    2.47    2.47</time>
   <energy>
    <i name="e_fr_energy">   -171.73538006 </i>
    <i name="e_wo_entrp">   -171.61137903 </i>
    <i name="e_0_energy">   -171.67337955 </i>
   </energy>
  </scstep>
  <scstep>
   <time name="dav">    2.39    2.39</time>
   <time name="total">    2.49    2.49</time>
   <energy>
    <i name="e_fr_energy">   -171.71541667 </i>
    <i name="e_wo_entrp">   -171.59411685 </i>
    <i name="e_0_energy">   -171.65476676 </i>
   </energy>
  </scstep>
  <scstep>
   <time name="dav">    2.33    2.33</time>
   <time name="total">    2.43    2.43</time>
   <energy>
    <i name="e_fr_energy">   -171.71495789 </i>
    <i name="e_wo_entrp">   -171.59274336 </i>
    <i name="e_0_energy">   -171.65385063 </i>
   </energy>
  </scstep>
  <scstep>
   <time name="dav">    2.28    2.29</time>
   <time name="total">    2.39    2.39</time>
   <energy>
    <i name="e_fr_energy">   -171.70952110 </i>
    <i name="e_wo_entrp">   -171.58739105 </i>
    <i name="e_0_energy">   -171.64845608 </i>
   </energy>
  </scstep>
  <scstep>
   <time name="dav">    2.36    2.36</time>
   <time name="total">    2.47    2.47</time>
   <energy>
    <i name="e_fr_energy">   -171.70801730 </i>
    <i name="e_wo_entrp">   -171.58589770 </i>
    <i name="e_0_energy">   -171.64695750 </i>
   </energy>
  </scstep>
  <scstep>
   <time name="dav">    2.38    2.38</time>
   <time name="total">    2.48    2.48</time>
   <energy>
    <i name="e_fr_energy">   -171.70498110 </i>
    <i name="e_wo_entrp">   -171.58246333 </i>
    <i name="e_0_energy">   -171.64372221 </i>
   </energy>
  </scstep>
  <scstep>
   <time name="dav">    2.11    2.12</time>
   <time name="total">    2.22    2.22</time>
   <energy>
    <i name="e_fr_energy">   -171.70494094 </i>
    <i name="e_wo_entrp">   -171.58247848 </i>
    <i name="e_0_energy">   -171.64370971 </i>
   </energy>
  </scstep>
  <scstep>
   <time name="dav">    1.96    1.96</time>
   <time name="total">    2.06    2.07</time>
   <energy>
    <i name="e_fr_energy">   -171.70485049 </i>
    <i name="e_wo_entrp">   -171.58235555 </i>
    <i name="e_0_energy">   -171.64360302 </i>
   </energy>
  </scstep>
  <scstep>
   <time name="dav">    2.07    2.07</time>
   <time name="total">    2.17    2.17</time>
   <energy>
    <i name="e_fr_energy">   -171.70478966 </i>
    <i name="e_wo_entrp">   -171.58229074 </i>
    <i name="e_0_energy">   -171.64354020 </i>
   </energy>
  </scstep>
  <scstep>
   <time name="dav">    2.37    2.37</time>
   <time name="total">    2.47    2.47</time>
   <energy>
    <i name="e_fr_energy">   -171.70464399 </i>
    <i name="e_wo_entrp">   -171.58208112 </i>
    <i name="e_0_energy">   -171.64336255 </i>
   </energy>
  </scstep>
  <scstep>
   <time name="dav">    1.86    1.86</time>
   <time name="total">    1.97    1.97</time>
   <energy>
    <i name="e_fr_energy">   -171.70463485 </i>
    <i name="e_wo_entrp">   -171.58206390 </i>
    <i name="e_0_energy">   -171.64334937 </i>
   </energy>
  </scstep>
  <scstep>
   <time name="dav">    1.14    1.15</time>
   <time name="total">    1.19    1.19</time>
   <energy>
    <i name="alphaZ">    553.52743051 </i>
    <i name="ewald">  -5193.97394751 </i>
    <i name="hartreedc">   -741.02959517 </i>
    <i name="XCdc">   -768.46723212 </i>
    <i name="pawpsdc">   7898.04774151 </i>
    <i name="pawaedc">  -7096.59807688 </i>
    <i name="eentropy">     -0.12258603 </i>
    <i name="bandstr">    489.42741334 </i>
    <i name="atom">   4687.48422623 </i>
    <i name="e_fr_energy">   -171.70462613 </i>
    <i name="e_wo_entrp">   -171.58204010 </i>
    <i name="e_0_energy">   -171.64333311 </i>
   </energy>
  </scstep>
  <structure>
   <crystal>
    <varray name="basis" >
     <v>       7.61648538      -0.52559583      -0.13110562 </v>
     <v>      -1.45131917       8.68395498      -0.31406155 </v>
     <v>       0.10666301       1.33805728       3.89998278 </v>
    </varray>
    <i name="volume">    258.56900668 </i>
    <varray name="rec_basis" >
     <v>       0.13260486       0.02176062      -0.01109261 </v>
     <v>       0.00724908       0.11493313      -0.03963103 </v>
     <v>       0.00504154       0.00998697       0.25284704 </v>
    </varray>
   </crystal>
   <varray name="positions" >
    <v>       0.77747960       0.85024278       0.26233449 </v>
    <v>       0.81935268       0.37932460       0.28739166 </v>
    <v>       0.16272891       0.01881887       0.29992597 </v>
    <v>       0.38215015       0.77664102       0.27057060 </v>
    <v>       0.60584279       0.58415394       0.25530693 </v>
    <v>       0.18552583       0.43345005       0.23946863 </v>
    <v>       0.46120882       0.27487395       0.27520975 </v>
    <v>       0.02869241       0.67399486       0.26530171 </v>
    <v>       0.84319297       0.62750119       0.76719814 </v>
    <v>       0.72033707       0.09640299       0.74776830 </v>
    <v>       0.19718102       0.72230823       0.78683269 </v>
    <v>       0.63857495       0.33128372       0.79005905 </v>
    <v>       0.00431322       0.36735644       0.78119726 </v>
    <v>       0.98899160       0.94669984       0.78153949 </v>
    <v>       0.38032626       0.50632199       0.75440771 </v>
    <v>       0.38149564       0.01799150       0.78159030 </v>
    <v>       0.56990832       0.79024705       0.76166380 </v>
    <v>       0.86567957       0.13395509       0.23524811 </v>
    <v>       0.52913418       0.03561623       0.27558011 </v>
    <v>       0.21701403       0.21254366       0.79420731 </v>
   </varray>
  </structure>
  <varray name="forces" >
   <v>       0.63045967       0.44931514      -0.10008611 </v>
   <v>      -0.51066285       0.35734594       0.34484153 </v>
   <v>      -0.36828731       0.02317988       0.14457568 </v>
   <v>       0.04196992      -0.74765639       0.15523265 </v>
   <v>      -0.16797638      -0.57341719       0.00538158 </v>
   <v>       0.78154277      -0.25099038       0.29605718 </v>
   <v>      -0.84880688       0.02133607       0.53141461 </v>
   <v>      -0.44164674       0.18136983       0.41842112 </v>
   <v>      -0.85519552      -0.00814171      -0.05792731 </v>
   <v>       0.56033214      -0.57575490      -0.07622314 </v>
   <v>      -0.36868249      -0.26462748      -0.19717089 </v>
   <v>      -0.65814923       0.38700703       0.35030579 </v>
   <v>       0.75690514       0.20469034      -0.49141017 </v>
   <v>      -0.35294452       0.04561482      -0.26063941 </v>
   <v>       0.47980160      -0.38817034      -0.36386293 </v>
   <v>      -1.14293652       0.73750496       0.01311284 </v>
   <v>       0.76508931      -0.05233046      -0.06942985 </v>
   <v>       0.98840272       0.01817609      -0.34450027 </v>
   <v>       0.92356633       0.14615775      -0.18602147 </v>
   <v>      -0.21278116       0.28939100      -0.11207142 </v>
  </varray>
  <varray name="stress" >
   <v>      44.35761801       4.39631459      15.34256815 </v>
   <v>       4.39631466      -3.10564650     -43.47418485 </v>
   <v>      15.34256822     -43.47418487      78.19260734 </v>
  </varray>
  <energy>
   <i name="e_fr_energy">   -171.70462613 </i>
   <i name="e_wo_entrp">   -171.64333311 </i>
   <i name="e_0_energy">     -0.12258603 </i>
  </energy>
  <time name="totalsc">   42.72   42.77</time>
 </calculation>
 <calculation>
  <scstep>
   <time name="dav">    1.39    1.39</time>
   <time name="total">    1.49    1.49</time>
   <energy>
    <i name="alphaZ">    548.09745976 </i>
    <i name="ewald">  -5196.63580599 </i>
    <i name="hartreedc">   -723.60742742 </i>
    <i name="XCdc">   -768.76758911 </i>
    <i name="pawpsdc">   7898.03512799 </i>
    <i name="pawaedc">  -7096.58427982 </i>
    <i name="eentropy">     -0.14899484 </i>
    <i name="bandstr">    478.68888448 </i>
    <i name="atom">   4687.48422623 </i>
    <i name="e_fr_energy">   -173.43839873 </i>
    <i name="e_wo_entrp">   -173.28940388 </i>
    <i name="e_0_energy">   -173.36390130 </i>
   </energy>
  </scstep>
  <scstep>
   <time name="dav">    2.35    2.35</time>
   <time name="total">    2.45    2.45</time>
   <energy>
    <i name="e_fr_energy">   -179.65708406 </i>
    <i name="e_wo_entrp">   -179.52459439 </i>
    <i name="e_0_energy">   -179.59083922 </i>
   </energy>
  </scstep>
  <scstep>
   <time name="dav">    2.40    2.40</time>
   <time name="total">    2.50    2.50</time>
   <energy>
    <i name="e_fr_energy">   -173.09350800 </i>
    <i name="e_wo_entrp">   -172.94565855 </i>
    <i name="e_0_energy">   -173.01958328 </i>
   </energy>
  </scstep>
  <scstep>
   <time name="dav">    2.35    2.35</time>
   <time name="total">    2.45    2.45</time>
   <energy>
    <i name="e_fr_energy">   -173.62191931 </i>
    <i name="e_wo_entrp">   -173.47441357 </i>
    <i name="e_0_energy">   -173.54816644 </i>
   </energy>
  </scstep>
  <scstep>
   <time name="dav">    2.39    2.39</time>
   <time name="total">    2.50    2.50</time>
   <energy>
    <i name="e_fr_energy">   -173.09938058 </i>
    <i name="e_wo_entrp">   -172.95613485 </i>
    <i name="e_0_energy">   -173.02775771 </i>
   </energy>
  </scstep>
  <scstep>
   <time name="dav">    2.38    2.38</time>
   <time name="total">    2.48    2.48</time>
   <energy>
    <i name="e_fr_energy">   -172.98769162 </i>
    <i name="e_wo_entrp">   -172.83700134 </i>
    <i name="e_0_energy">   -172.91234648 </i>
   </energy>
  </scstep>
  <scstep>
   <time name="dav">    2.40    2.40</time>
   <time name="total">    2.50    2.50</time>
   <energy>
    <i name="e_fr_energy">   -172.97248232 </i>
    <i name="e_wo_entrp">   -172.82248158 </i>
    <i name="e_0_energy">   -172.89748195 </i>
   </energy>
  </scstep>
  <scstep>
   <time name="dav">    2.33    2.33</time>
   <time name="total">    2.43    2.44</time>
   <energy>
    <i name="e_fr_energy">   -172.93070509 </i>
    <i name="e_wo_entrp">   -172.78133008 </i>
    <i name="e_0_energy">   -172.85601759 </i>
   </energy>
  </scstep>
  <scstep>
   <time name="dav">    2.16    2.16</time>
   <time name="total">    2.26    2.26</time>
   <energy>
    <i name="e_fr_energy">   -172.93135330 </i>
    <i name="e_wo_entrp">   -172.78110393 </i>
    <i name="e_0_energy">   -172.85622862 </i>
   </energy>
  </scstep>
  <scstep>
   <time name="dav">    2.21    2.21</time>
   <time name="total">    2.31    2.31</time>
   <energy>
    <i name="e_fr_energy">   -172.92923060 </i>
    <i name="e_wo_entrp">   -172.77965799 </i>
    <i name="e_0_energy">   -172.85444429 </i>
   </energy>
  </scstep>
  <scstep>
   <time name="dav">    1.94    1.94</time>
   <time name="total">    2.05    2.05</time>
   <energy>
    <i name="e_fr_energy">   -172.92901731 </i>
    <i name="e_wo_entrp">   -172.77894286 </i>
    <i name="e_0_energy">   -172.85398008 </i>
   </energy>
  </scstep>
  <scstep>
   <time name="dav">    2.08    2.08</time>
   <time name="total">    2.18    2.18</time>
   <energy>
    <i name="e_fr_energy">   -172.92897663 </i>
    <i name="e_wo_entrp">   -172.77905892 </i>
    <i name="e_0_energy">   -172.85401777 </i>
   </energy>
  </scstep>
  <scstep>
   <time name="dav">    1.96    1.96</time>
   <time name="total">    2.06    2.07</time>
   <energy>
    <i name="e_fr_energy">   -172.92882091 </i>
    <i name="e_wo_entrp">   -172.77891942 </i>
    <i name="e_0_energy">   -172.85387017 </i>
   </energy>
  </scstep>
  <scstep>
   <time name="dav">    2.04    2.04</time>
   <time name="total">    2.14    2.14</time>
   <energy>
    <i name="e_fr_energy">   -172.92883884 </i>
    <i name="e_wo_entrp">   -172.77894559 </i>
    <i name="e_0_energy">   -172.85389221 </i>
   </energy>
  </scstep>
  <scstep>
   <time name="dav">    1.72    1.72</time>
   <time name="total">    1.82    1.82</time>
   <energy>
    <i name="e_fr_energy">   -172.92881609 </i>
    <i name="e_wo_entrp">   -172.77893863 </i>
    <i name="e_0_energy">   -172.85387736 </i>
   </energy>
  </scstep>
  <scstep>
   <time name="dav">    1.14    1.14</time>
   <time name="total">    1.18    1.18</time>
   <energy>
    <i name="alphaZ">    548.09745976 </i>
    <i name="ewald">  -5196.63580599 </i>
    <i name="hartreedc">   -725.55636841 </i>
    <i name="XCdc">   -768.97311352 </i>
    <i name="pawpsdc">   7734.96604613 </i>
    <i name="pawaedc">  -6932.13848550 </i>
    <i name="eentropy">     -0.14988688 </i>
    <i name="bandstr">    479.97711064 </i>
    <i name="atom">   4687.48422623 </i>
    <i name="e_fr_energy">   -172.92881754 </i>
    <i name="e_wo_entrp">   -172.77893066 </i>
    <i name="e_0_energy">   -172.85387410 </i>
   </energy>
  </scstep>
  <structure>
   <crystal>
    <varray name="basis" >
     <v>       7.69782487      -0.59842381      -0.09615055 </v>
     <v>      -1.57411281       8.41077615      -0.54450012 </v>
     <v>       0.10489606       1.19463536       4.00960399 </v>
    </varray>
    <i name="volume">    261.13063531 </i>
    <varray name="rec_basis" >
     <v>       0.13163665       0.02395143      -0.01057995 </v>
     <v>       0.00874879       0.11823705      -0.03545684 </v>
     <v>       0.00434473       0.01663083       0.24433248 </v>
    </varray>
   </crystal>
   <varray name="positions" >
    <v>       0.78512657       0.85510163       0.25953677 </v>
    <v>       0.81736655       0.37799422       0.29525576 </v>
    <v>       0.15884180       0.01659439       0.30660855 </v>
    <v>       0.38641656       0.77463745       0.27230588 </v>
    <v>       0.60207347       0.58035784       0.25183939 </v>
    <v>       0.18932505       0.43638334       0.23780424 </v>
    <v>       0.45861454       0.27239317       0.28335004 </v>
    <v>       0.02123210       0.67076018       0.26905967 </v>
    <v>       0.83435916       0.62615493       0.76580150 </v>
    <v>       0.72492596       0.09628074       0.74184124 </v>
    <v>       0.19492898       0.72202659       0.78746277 </v>
[...]
  <structure>
   <crystal>
    <varray name="basis" >
     <v>       7.64650979      -0.59023280       0.03278446 </v>
     <v>      -1.62510815       8.05042192      -1.24325848 </v>
     <v>       0.13820393       0.78062604       3.98114983 </v>
    </varray>
    <i name="volume">    248.69590040 </i>
    <varray name="rec_basis" >
     <v>       0.13277443       0.02532400      -0.00957475 </v>
     <v>       0.00955141       0.12238791      -0.02432946 </v>
     <v>       0.00188939       0.03801152       0.24366480 </v>
    </varray>
   </crystal>
   <varray name="positions" >
    <v>       0.78768719       0.87095457       0.27523977 </v>
    <v>       0.78699472       0.35534094       0.26492314 </v>
    <v>       0.18038309      -0.03001112       0.27518114 </v>
    <v>       0.39132631       0.77093979       0.27276075 </v>
    <v>       0.58581259       0.56132714       0.26590931 </v>
    <v>       0.18529004       0.45675393       0.26906157 </v>
    <v>       0.38290183       0.25874677       0.27065568 </v>
    <v>      -0.01369395       0.66272416       0.27479663 </v>
    <v>       0.78932287       0.61362728       0.76880395 </v>
    <v>       0.79174058       0.11414819       0.76812863 </v>
    <v>       0.18963020       0.71706078       0.77299917 </v>
    <v>       0.59291710       0.31365368       0.76350195 </v>
    <v>      -0.00795848       0.40595860       0.76825202 </v>
    <v>       0.99241835       0.92515375       0.77564742 </v>
    <v>       0.38308879       0.50797010       0.76858351 </v>
    <v>       0.39140911       0.01895987       0.77439515 </v>
    <v>       0.58705131       0.81497885       0.77317444 </v>
    <v>       0.97909695       0.16276972       0.27334665 </v>
    <v>       0.58550184       0.06536617       0.26957768 </v>
    <v>       0.19820958       0.21330482       0.76786344 </v>
   </varray>
  </structure>
  <varray name="forces" >
   <v>      -0.00264314      -0.00717220       0.00209539 </v>
   <v>      -0.00033346      -0.00771261      -0.00332333 </v>
   <v>      -0.01590388      -0.00515890       0.00038417 </v>
   <v>       0.01374904       0.00327713      -0.00131078 </v>
   <v>       0.00080850       0.00640660      -0.00474327 </v>
   <v>       0.00033225       0.00026608       0.00103077 </v>
   <v>      -0.00346261       0.00560701      -0.00814262 </v>
   <v>       0.00231795      -0.00359637       0.00596439 </v>
   <v>      -0.00078340      -0.00270318      -0.00006699 </v>
   <v>      -0.00694881       0.01321856       0.00001843 </v>
   <v>      -0.00032484       0.00068386      -0.00060706 </v>
   <v>       0.00169304       0.00267639      -0.00207912 </v>
   <v>       0.00805750      -0.00159271       0.00045076 </v>
   <v>      -0.00096105      -0.00677835       0.00331008 </v>
   <v>       0.00857485       0.00328279      -0.00352540 </v>
   <v>      -0.00176468      -0.00333129       0.00385328 </v>
   <v>      -0.00456348      -0.00365323       0.00400080 </v>
   <v>       0.00092615      -0.00178150       0.00395395 </v>
   <v>       0.00116284       0.00808781      -0.00033268 </v>
   <v>       0.00006723      -0.00002586      -0.00093078 </v>
  </varray>
  <varray name="stress" >
   <v>      -1.05233700      -0.14567335       0.11570503 </v>
   <v>      -0.14567350      -0.28898511      -0.06667171 </v>
   <v>       0.11570497      -0.06667173      -0.37650250 </v>
  </varray>
  <energy>
   <i name="e_fr_energy">   -177.46210978 </i>
   <i name="e_wo_entrp">   -177.41637385 </i>
   <i name="e_0_energy">     -0.09147186 </i>
  </energy>
  <time name="totalsc">    2.30    2.30</time>
 </calculation>
 <calculation>
  <scstep>
   <time name="dav">    0.44    0.44</time>
   <time name="total">    0.49    0.49</time>
   <energy>
    <i name="alphaZ">    575.50220039 </i>
    <i name="ewald">  -5330.55399855 </i>
    <i name="hartreedc">   -664.67085743 </i>
    <i name="XCdc">   -767.41334803 </i>
    <i name="pawpsdc">   7916.46512146 </i>
    <i name="pawaedc">  -7114.04119211 </i>
    <i name="eentropy">     -0.09146903 </i>
    <i name="bandstr">    519.85720732 </i>
    <i name="atom">   4687.48422623 </i>
    <i name="e_fr_energy">   -177.46210976 </i>
    <i name="e_wo_entrp">   -177.37064073 </i>
    <i name="e_0_energy">   -177.41637524 </i>
   </energy>
  </scstep>
  <scstep>
   <time name="dav">    0.44    0.44</time>
   <time name="total">    0.46    0.46</time>
   <energy>
    <i name="alphaZ">    575.50220039 </i>
    <i name="ewald">  -5330.55399855 </i>
    <i name="hartreedc">   -664.66658539 </i>
    <i name="XCdc">   -767.41353951 </i>
    <i name="pawpsdc">   7916.45725053 </i>
    <i name="pawaedc">  -7114.03276770 </i>
    <i name="eentropy">     -0.09146683 </i>
    <i name="bandstr">    519.85257081 </i>
    <i name="atom">   4687.48422623 </i>
    <i name="e_fr_energy">   -177.46211003 </i>
    <i name="e_wo_entrp">   -177.37064320 </i>
    <i name="e_0_energy">   -177.41637661 </i>
   </energy>
  </scstep>
  <structure>
   <crystal>
    <varray name="basis" >
     <v>       7.64650979      -0.59023280       0.03278446 </v>
     <v>      -1.62510815       8.05042192      -1.24325848 </v>
     <v>       0.13820393       0.78062604       3.98114983 </v>
    </varray>
    <i name="volume">    248.69590035 </i>
    <varray name="rec_basis" >
     <v>       0.13277443       0.02532400      -0.00957475 </v>
     <v>       0.00955141       0.12238791      -0.02432946 </v>
     <v>       0.00188939       0.03801152       0.24366480 </v>
    </varray>
   </crystal>
   <varray name="positions" >
    <v>       0.78768719       0.87095457       0.27523977 </v>
    <v>       0.78699472       0.35534094       0.26492314 </v>
    <v>       0.18038309      -0.03001112       0.27518114 </v>
    <v>       0.39132631       0.77093979       0.27276075 </v>
    <v>       0.58581259       0.56132714       0.26590931 </v>
    <v>       0.18529004       0.45675393       0.26906157 </v>
    <v>       0.38290183       0.25874677       0.27065568 </v>
    <v>      -0.01369395       0.66272416       0.27479663 </v>
    <v>       0.78932287       0.61362728       0.76880395 </v>
    <v>       0.79174058       0.11414819       0.76812863 </v>
    <v>       0.18963020       0.71706078       0.77299917 </v>
    <v>       0.59291710       0.31365368       0.76350195 </v>
    <v>      -0.00795848       0.40595860       0.76825202 </v>
    <v>       0.99241835       0.92515375       0.77564742 </v>
    <v>       0.38308879       0.50797010       0.76858351 </v>
    <v>       0.39140911       0.01895987       0.77439515 </v>
    <v>       0.58705131       0.81497885       0.77317444 </v>
    <v>       0.97909695       0.16276972       0.27334665 </v>
    <v>       0.58550184       0.06536617       0.26957768 </v>
    <v>       0.19820958       0.21330482       0.76786344 </v>
   </varray>
  </structure>
  <varray name="forces" >
   <v>      -0.00254984      -0.00681793       0.00205064 </v>
   <v>      -0.00021774      -0.00804466      -0.00327671 </v>
   <v>      -0.01621272      -0.00479376       0.00034357 </v>
   <v>       0.01377841       0.00343671      -0.00134267 </v>
   <v>       0.00083980       0.00648728      -0.00477004 </v>
   <v>       0.00024209      -0.00013736       0.00113040 </v>
   <v>      -0.00389162       0.00538639      -0.00807321 </v>
   <v>       0.00223050      -0.00358605       0.00601428 </v>
   <v>      -0.00073317      -0.00274198      -0.00008363 </v>
   <v>      -0.00658999       0.01334341      -0.00005432 </v>
   <v>      -0.00028634       0.00058192      -0.00059989 </v>
   <v>       0.00174550       0.00279360      -0.00214387 </v>
   <v>       0.00832630      -0.00193149       0.00051861 </v>
   <v>      -0.00082928      -0.00630660       0.00320200 </v>
   <v>       0.00841042       0.00297855      -0.00347469 </v>
   <v>      -0.00179618      -0.00312845       0.00383391 </v>
   <v>      -0.00455782      -0.00377665       0.00403572 </v>
   <v>       0.00069413      -0.00181812       0.00398339 </v>
   <v>       0.00119143       0.00810765      -0.00032701 </v>
   <v>       0.00020612      -0.00003246      -0.00096646 </v>
  </varray>
  <varray name="stress" >
   <v>      -0.84069386      -0.14285530       0.11623259 </v>
   <v>      -0.14285527      -0.07159834      -0.06524106 </v>
   <v>       0.11623265      -0.06524127      -0.16880045 </v>
  </varray>
  <energy>
   <i name="e_fr_energy">   -177.46211003 </i>
   <i name="e_wo_entrp">   -177.41637661 </i>
   <i name="e_0_energy">     -0.09146683 </i>
  </energy>
  <time name="totalsc">    2.30    2.31</time>
 </calculation>
 <calculation>
  <scstep>
   <time name="dav">    0.44    0.44</time>
   <time name="total">    0.49    0.49</time>
   <energy>
    <i name="alphaZ">    575.50220042 </i>
    <i name="ewald">  -5330.55399865 </i>
    <i name="hartreedc">   -664.67024253 </i>
    <i name="XCdc">   -767.41337697 </i>
    <i name="pawpsdc">   7916.46431360 </i>
    <i name="pawaedc">  -7114.04026735 </i>
    <i name="eentropy">     -0.09146738 </i>
    <i name="bandstr">    519.85650288 </i>
    <i name="atom">   4687.48422623 </i>
    <i name="e_fr_energy">   -177.46210975 </i>
    <i name="e_wo_entrp">   -177.37064237 </i>
    <i name="e_0_energy">   -177.41637606 </i>
   </energy>
  </scstep>
  <scstep>
   <time name="dav">    0.44    0.44</time>
   <time name="total">    0.46    0.46</time>
   <energy>
    <i name="alphaZ">    575.50220042 </i>
    <i name="ewald">  -5330.55399865 </i>
    <i name="hartreedc">   -664.67083214 </i>
    <i name="XCdc">   -767.41335037 </i>
    <i name="pawpsdc">   7916.46475119 </i>
    <i name="pawaedc">  -7114.04087498 </i>
    <i name="eentropy">     -0.09146994 </i>
    <i name="bandstr">    519.85723844 </i>
    <i name="atom">   4687.48422623 </i>
    <i name="e_fr_energy">   -177.46210980 </i>
    <i name="e_wo_entrp">   -177.37063987 </i>
    <i name="e_0_energy">   -177.41637484 </i>
   </energy>
  </scstep>
  <structure>
   <crystal>
    <varray name="basis" >
     <v>       7.64650979      -0.59023280       0.03278446 </v>
     <v>      -1.62510815       8.05042192      -1.24325848 </v>
     <v>       0.13820393       0.78062604       3.98114983 </v>
    </varray>
    <i name="volume">    248.69590034 </i>
    <varray name="rec_basis" >
     <v>       0.13277443       0.02532400      -0.00957475 </v>
     <v>       0.00955141       0.12238791      -0.02432946 </v>
     <v>       0.00188939       0.03801152       0.24366480 </v>
    </varray>
   </crystal>
   <varray name="positions" >
    <v>       0.78768719       0.87095457       0.27523977 </v>
    <v>       0.78699472       0.35534094       0.26492314 </v>
    <v>       0.18038309      -0.03001112       0.27518114 </v>
    <v>       0.39132631       0.77093979       0.27276075 </v>
    <v>       0.58581259       0.56132714       0.26590931 </v>
    <v>       0.18529004       0.45675393       0.26906157 </v>
    <v>       0.38290183       0.25874677       0.27065568 </v>
    <v>      -0.01369395       0.66272416       0.27479663 </v>
    <v>       0.78932287       0.61362728       0.76880395 </v>
    <v>       0.79174058       0.11414819       0.76812863 </v>
    <v>       0.18963020       0.71706078       0.77299917 </v>
    <v>       0.59291710       0.31365368       0.76350195 </v>
    <v>      -0.00795848       0.40595860       0.76825202 </v>
    <v>       0.99241835       0.92515375       0.77564742 </v>
    <v>       0.38308879       0.50797010       0.76858351 </v>
    <v>       0.39140911       0.01895987       0.77439515 </v>
    <v>       0.58705131       0.81497885       0.77317444 </v>
    <v>       0.97909695       0.16276972       0.27334665 </v>
    <v>       0.58550184       0.06536617       0.26957768 </v>
    <v>       0.19820958       0.21330482       0.76786344 </v>
   </varray>
  </structure>
  <varray name="forces" >
   <v>      -0.00247240      -0.00728856       0.00207609 </v>
   <v>      -0.00016210      -0.00752630      -0.00336827 </v>
   <v>      -0.01597216      -0.00519843       0.00039615 </v>
   <v>       0.01366059       0.00309788      -0.00127347 </v>
   <v>       0.00081842       0.00645626      -0.00474702 </v>
   <v>       0.00033296       0.00029137       0.00102877 </v>
   <v>      -0.00360336       0.00571340      -0.00814577 </v>
   <v>       0.00230575      -0.00361586       0.00596254 </v>
   <v>      -0.00074564      -0.00265380      -0.00007239 </v>
   <v>      -0.00674563       0.01322207      -0.00000030 </v>
   <v>      -0.00032780       0.00064592      -0.00060878 </v>
   <v>       0.00167572       0.00284435      -0.00210875 </v>
   <v>       0.00806576      -0.00154419       0.00045626 </v>
   <v>      -0.00104500      -0.00685801       0.00332663 </v>
   <v>       0.00851329       0.00332416      -0.00352165 </v>
   <v>      -0.00190965      -0.00339911       0.00388121 </v>
   <v>      -0.00452419      -0.00380039       0.00403763 </v>
   <v>       0.00093663      -0.00176866       0.00394561 </v>
   <v>       0.00111487       0.00806986      -0.00032753 </v>
   <v>       0.00008394      -0.00001194      -0.00093695 </v>
  </varray>
  <varray name="stress" >
   <v>      -1.13100340      -0.14498810       0.11491280 </v>
   <v>      -0.14498810      -0.36947985      -0.06832752 </v>
   <v>       0.11491272      -0.06832737      -0.45870507 </v>
  </varray>
  <energy>
   <i name="e_fr_energy">   -177.46210980 </i>
   <i name="e_wo_entrp">   -177.41637484 </i>
   <i name="e_0_energy">     -0.09146994 </i>
  </energy>
  <time name="totalsc">    2.30    2.30</time>
 </calculation>
 <calculation>
  <scstep>
   <time name="dav">    0.68    0.68</time>
   <time name="total">    0.73    0.73</time>
   <energy>
    <i name="alphaZ">    575.93181298 </i>
    <i name="ewald">  -5331.96829491 </i>
    <i name="hartreedc">   -664.74682826 </i>
    <i name="XCdc">   -767.36964640 </i>
    <i name="pawpsdc">   7916.46411474 </i>
    <i name="pawaedc">  -7114.04016709 </i>
    <i name="eentropy">     -0.09113435 </i>
    <i name="bandstr">    520.87357486 </i>
    <i name="atom">   4687.48422623 </i>
    <i name="e_fr_energy">   -177.46234221 </i>
    <i name="e_wo_entrp">   -177.37120785 </i>
    <i name="e_0_energy">   -177.41677503 </i>
   </energy>
  </scstep>
  <scstep>
   <time name="dav">    1.16    1.16</time>
   <time name="total">    1.21    1.22</time>
   <energy>
    <i name="e_fr_energy">   -177.48035170 </i>
    <i name="e_wo_entrp">   -177.38888787 </i>
    <i name="e_0_energy">   -177.43461979 </i>
   </energy>
  </scstep>
  <scstep>
   <time name="dav">    1.16    1.16</time>
   <time name="total">    1.21    1.21</time>
   <energy>
    <i name="e_fr_energy">   -177.46207487 </i>
    <i name="e_wo_entrp">   -177.37077359 </i>
    <i name="e_0_energy">   -177.41642423 </i>
   </energy>
  </scstep>
  <scstep>
   <time name="dav">    1.00    1.00</time>
   <time name="total">    1.05    1.05</time>
   <energy>
    <i name="e_fr_energy">   -177.46211138 </i>
    <i name="e_wo_entrp">   -177.37090619 </i>
    <i name="e_0_energy">   -177.41650879 </i>
   </energy>
  </scstep>
  <scstep>
   <time name="dav">    1.02    1.02</time>
   <time name="total">    1.07    1.07</time>
   <energy>
    <i name="e_fr_energy">   -177.46210467 </i>
    <i name="e_wo_entrp">   -177.37085066 </i>
    <i name="e_0_energy">   -177.41647766 </i>
   </energy>
  </scstep>
  <scstep>
   <time name="dav">    0.96    0.96</time>
   <time name="total">    1.01    1.01</time>
   <energy>
    <i name="e_fr_energy">   -177.46205142 </i>
    <i name="e_wo_entrp">   -177.37079539 </i>
    <i name="e_0_energy">   -177.41642341 </i>
   </energy>
  </scstep>
  <scstep>
   <time name="dav">    0.82    0.82</time>
   <time name="total">    0.84    0.84</time>
   <energy>
    <i name="alphaZ">    575.93181298 </i>
    <i name="ewald">  -5331.96829491 </i>
    <i name="hartreedc">   -664.33713876 </i>
    <i name="XCdc">   -767.37749382 </i>
    <i name="pawpsdc">   7922.81865972 </i>
    <i name="pawaedc">  -7120.43257155 </i>
    <i name="eentropy">     -0.09125526 </i>
    <i name="bandstr">    520.51001013 </i>
    <i name="atom">   4687.48422623 </i>
    <i name="e_fr_energy">   -177.46204525 </i>
    <i name="e_wo_entrp">   -177.37078999 </i>
    <i name="e_0_energy">   -177.41641762 </i>
   </energy>
  </scstep>
  <structure>
   <crystal>
    <varray name="basis" >
     <v>       7.64474469      -0.59014895       0.03298326 </v>
     <v>      -1.62481124       8.04871599      -1.24267309 </v>
     <v>       0.13828625       0.78058772       3.97995765 </v>
    </varray>
    <i name="volume">    248.51038726 </i>
    <varray name="rec_basis" >
     <v>       0.13280557       0.02533027      -0.00958243 </v>
     <v>       0.00955499       0.12241420      -0.02434105 </v>
     <v>       0.00188278       0.03801180       0.24373830 </v>
    </varray>
   </crystal>
   <varray name="positions" >
    <v>       0.78765278       0.87090123       0.27506193 </v>
    <v>       0.78698931       0.35538597       0.26467019 </v>
    <v>       0.18035849      -0.03000663       0.27526453 </v>
    <v>       0.39132521       0.77080832       0.27289434 </v>
    <v>       0.58575257       0.56136840       0.26601071 </v>
    <v>       0.18520254       0.45666970       0.26903732 </v>
    <v>       0.38295802       0.25872634       0.27086314 </v>
    <v>      -0.01367665       0.66282700       0.27465010 </v>
    <v>       0.78937685       0.61372669       0.76875624 </v>
    <v>       0.79166270       0.11420514       0.76798970 </v>
    <v>       0.18961454       0.71708392       0.77295492 </v>
    <v>       0.59301939       0.31367680       0.76355349 </v>
    <v>      -0.00793618       0.40599755       0.76796844 </v>
    <v>       0.99248801       0.92528200       0.77544540 </v>
    <v>       0.38299693       0.50787611       0.76875291 </v>
    <v>       0.39150288       0.01887347       0.77474705 </v>
    <v>       0.58701083       0.81481037       0.77324961 </v>
    <v>       0.97906662       0.16282115       0.27322866 </v>
    <v>       0.58551551       0.06534608       0.26976526 </v>
    <v>       0.19824965       0.21334839       0.76793805 </v>
   </varray>
  </structure>
  <varray name="forces" >
   <v>       0.00149190      -0.00137776       0.00232238 </v>
   <v>       0.00133500      -0.00320405      -0.00083983 </v>
   <v>      -0.00742730      -0.00240122      -0.00192983 </v>
   <v>       0.00648129       0.00679468       0.00027742 </v>
   <v>       0.00767663      -0.00256629      -0.00230537 </v>
   <v>       0.00412327       0.00292838       0.00003648 </v>
   <v>      -0.00255092       0.00458597      -0.00813951 </v>
   <v>       0.00016823      -0.00756515       0.00554616 </v>
   <v>      -0.00104678      -0.00771648      -0.00242100 </v>
   <v>      -0.00125747       0.01149430       0.00223351 </v>
   <v>       0.00019060      -0.00130080       0.00156620 </v>
   <v>      -0.00496320      -0.00022986      -0.00197507 </v>
   <v>       0.00204592       0.00019432       0.00389988 </v>
   <v>      -0.00798965      -0.01025867       0.00623702 </v>
   <v>       0.01063258       0.00163065      -0.00291340 </v>
   <v>      -0.00860526       0.00222966      -0.00305786 </v>
   <v>      -0.00329492       0.00444855       0.00209867 </v>
   <v>       0.00103582      -0.00099196       0.00272843 </v>
   <v>       0.00161722       0.00608012      -0.00268598 </v>
   <v>       0.00033705      -0.00277438      -0.00067827 </v>
  </varray>
  <varray name="stress" >
   <v>       0.23722954      -0.17098604       0.12946578 </v>
   <v>      -0.17098607       0.79348493      -0.26501396 </v>
   <v>       0.12946582      -0.26501389       1.18239318 </v>
  </varray>
  <energy>
   <i name="e_fr_energy">   -177.46204525 </i>
   <i name="e_wo_entrp">   -177.41641762 </i>
   <i name="e_0_energy">     -0.09125526 </i>
  </energy>
