unknown system                          
           1
     7.448009    0.000000    0.000000
    -0.754989    9.537702    0.000000
     0.281022    1.638562    3.647007
   V    Fe
  17   3
Direct configuration=     1
   0.76538400  0.84335800  0.27062900
   0.81145200  0.39141300  0.27071500
   0.16882100  0.02957500  0.27073200
   0.35971200  0.76567900  0.27067600
   0.61567100  0.58430100  0.27066500
   0.19390700  0.40998200  0.27064000
   0.44238000  0.28042500  0.27084600
   0.05008700  0.68823100  0.27062300
   0.85633400  0.63123600  0.77059500
   0.71525500  0.08328000  0.77040400
   0.19471900  0.71805500  0.77065200
   0.62805500  0.34489100  0.77077400
   0.01129700  0.36090400  0.77059600
   0.98233400  0.95308800  0.77063500
   0.39921800  0.50140400  0.77064100
   0.38948800  0.02975900  0.77076700
   0.56188300  0.78001000  0.77062300
   0.84449500  0.12204900  0.27033200
   0.55023800  0.05030100  0.27065500
   0.21840000  0.21178700  0.77060200
unknown system                          
           1
     7.880089   -0.321038   -0.107435
    -1.209901    9.534091   -0.152399
     0.174090    1.557799    3.946938
   V    Fe
  17   3
Direct configuration=     2
   0.77035356  0.84583622  0.26756710
   0.81747799  0.38452295  0.27873004
   0.16606255  0.02247043  0.28977915
   0.37199020  0.77225711  0.27067969
   0.61006839  0.58541816  0.26235210
   0.18648489  0.42428313  0.25075744
   0.45554785  0.27807188  0.26976625
   0.03790480  0.68015319  0.26772171
   0.85106320  0.62976139  0.76751749
   0.71656914  0.09080272  0.75953762
   0.19732894  0.72079813  0.77986730
   0.63595397  0.33621222  0.78141355
   0.00519425  0.36508990  0.77798082
   0.98761241  0.94938682  0.77719646
   0.38776912  0.50553283  0.76159807
   0.38672106  0.02159581  0.77733962
   0.56546965  0.78527572  0.76577548
   0.85665308  0.12953726  0.24756383
   0.53667160  0.04185770  0.27320520
   0.21623336  0.21086443  0.78645309
unknown system                          
           1
     7.770734   -0.239787   -0.080244
    -1.094767    9.535005   -0.113829
     0.201153    1.578239    3.871029
   V    Fe
  17   3
Direct configuration=     3
   0.76913929  0.84519352  0.26822528
   0.81609143  0.38617410  0.27688168
   0.16673686  0.02417745  0.28540910
   0.36894823  0.77051370  0.27052871
   0.61143677  0.58522050  0.26432575
   0.18815683  0.42083799  0.25531961
   0.45242433  0.27857888  0.26995331
   0.04095860  0.68228949  0.26856581
   0.85236426  0.63018635  0.76828901
   0.71619743  0.08895631  0.76199739
   0.19662007  0.72003897  0.77766363
   0.63413081  0.33828695  0.77895590
   0.00656564  0.36403777  0.77625053
   0.98636682  0.95024739  0.77566133
   0.39050197  0.50462090  0.76375200
   0.38747083  0.02363690  0.77590179
   0.56455618  0.78394981  0.76683305
   0.85373357  0.12768804  0.25273747
   0.54003749  0.04406638  0.27278571
   0.21669259  0.21102661  0.78276496
unknown system                          
           1
     7.651338   -0.461017   -0.119613
    -1.370755    8.876251   -0.268819
     0.128013    1.392327    3.893441
   V    Fe
  17   3
Direct configuration=     4
   0.77553943  0.84903018  0.26360372
   0.81863618  0.38090007  0.28507173
   0.16365796  0.02005428  0.29670709
   0.37907243  0.77512940  0.27048474
   0.60715539  0.58446504  0.25735860
   0.18606321  0.43052189  0.24294461
   0.45921225  0.27569895  0.27403656
   0.03158074  0.67603041  0.26612852
   0.84532069  0.62818163  0.76748450
   0.71936011  0.09466932  0.75090555
   0.19701249  0.72173118  0.78474829
   0.63758705  0.33288862  0.78760423
   0.00479115  0.36655749  0.78006154
   0.98840491  0.94751031  0.78023804
   0.38266776  0.50599490  0.75652046
   0.38289876  0.01933694  0.78036635
   0.56864156  0.78874715  0.76276695
   0.86292959  0.13248239  0.23911254
   0.53169710  0.03766002  0.27504066
   0.21690126  0.21213780  0.79161734
unknown system                          
           1
     7.616485   -0.525596   -0.131106
    -1.451319    8.683955   -0.314062
     0.106663    1.338057    3.899983
   V    Fe
  17   3
Direct configuration=     5
   0.77747960  0.85024278  0.26233449
   0.81935268  0.37932460  0.28739166
   0.16272891  0.01881887  0.29992597
   0.38215015  0.77664102  0.27057060
   0.60584279  0.58415394  0.25530693
   0.18552583  0.43345005  0.23946863
   0.46120882  0.27487395  0.27520975
   0.02869241  0.67399486  0.26530171
   0.84319297  0.62750119  0.76719814
   0.72033707  0.09640299  0.74776830
   0.19718102  0.72230823  0.78683269
   0.63857495  0.33128372  0.79005905
   0.00431322  0.36735644  0.78119726
   0.98899160  0.94669984  0.78153949
   0.38032626  0.50632199  0.75440771
   0.38149564  0.01799150  0.78159030
   0.56990832  0.79024705  0.76166380
   0.86567957  0.13395509  0.23524811
   0.52913418  0.03561623  0.27558011
   0.21701403  0.21254366  0.79420731
unknown system                          
           1
     7.697825   -0.598424   -0.096151
    -1.574113    8.410776   -0.544500
     0.104896    1.194635    4.009604
   V    Fe
  17   3
Direct configuration=     6
   0.78512657  0.85510163  0.25953677
   0.81736655  0.37799422  0.29525576
   0.15884180  0.01659439  0.30660855
   0.38641656  0.77463745  0.27230588
   0.60207347  0.58035784  0.25183939
   0.18932505  0.43638334  0.23780424
   0.45861454  0.27239317  0.28335004
   0.02123210  0.67076018  0.26905967
   0.83435916  0.62615493  0.76580150
   0.72492596  0.09628074  0.74184124
   0.19492898  0.72202659  0.78746277
   0.63609564  0.33001379  0.79817981
   0.00893319  0.37098691  0.77724435
   0.98782280  0.94605877  0.78029696
   0.37951257  0.50550006  0.74657490
   0.37269347  0.01952564  0.78370097
   0.57682479  0.79275161  0.75929322
   0.87656530  0.13740406  0.22529535
   0.53125694  0.03383103  0.27437925
   0.21621455  0.21497165  0.79697140
unknown system                          
           1
     7.813877   -0.702332   -0.046278
    -1.749311    8.021014   -0.873282
     0.102375    0.990006    4.166008
   V    Fe
  17   3
Direct configuration=     7
   0.79606449  0.86222524  0.25598413
   0.81457286  0.37625639  0.30610758
   0.15332517  0.01348879  0.31575828
   0.39240543  0.77181405  0.27449910
   0.59660808  0.57465282  0.24672157
   0.19477244  0.44067394  0.23570270
   0.45492925  0.26897293  0.29449221
   0.01061178  0.66604331  0.27408912
   0.82181515  0.62402896  0.76383635
   0.73137262  0.09598535  0.73352997
   0.19173966  0.72160401  0.78833984
   0.63260785  0.32836561  0.80939959
   0.01554593  0.37623987  0.77200932
   0.98614243  0.94506886  0.77852407
   0.37828389  0.50405407  0.73560884
   0.36030166  0.02171771  0.78686978
   0.58666428  0.79643473  0.75613698
   0.89199441  0.14229467  0.21162417
   0.53419971  0.03121171  0.27252808
   0.21517293  0.21859498  0.80104033
unknown system                          
           1
     7.779225   -0.671306   -0.061170
    -1.696998    8.137395   -0.775110
     0.103128    1.051107    4.119307
   V    Fe
  17   3
Direct configuration=     8
   0.79278045  0.86000133  0.25685583
   0.81538879  0.37670993  0.30300600
   0.15496073  0.01439313  0.31317732
   0.39065897  0.77264814  0.27395533
   0.59828379  0.57649236  0.24833626
   0.19313091  0.43933858  0.23621348
   0.45602285  0.26995002  0.29134822
   0.01377704  0.66750506  0.27272804
   0.82554013  0.62475601  0.76442547
   0.72949156  0.09612643  0.73596007
   0.19268261  0.72173988  0.78808827
   0.63362696  0.32879072  0.80618728
   0.01355879  0.37462906  0.77340463
   0.98665116  0.94539883  0.77905818
   0.37868392  0.50460635  0.73881563
   0.36393121  0.02105670  0.78586102
   0.58373461  0.79528038  0.75698106
   0.88742787  0.14083760  0.21549408
   0.53335922  0.03203053  0.27314044
   0.21543843  0.21743695  0.79976541
unknown system                          
           1
     7.759353   -0.629626   -0.009412
    -1.683541    7.824083   -1.065376
     0.119953    0.866812    4.113372
   V    Fe
  17   3
Direct configuration=     9
   0.79484581  0.86367496  0.25580648
   0.81224734  0.37655947  0.30654770
   0.15533307  0.01254363  0.31239466
   0.39041708  0.76906590  0.27428142
   0.59778350  0.57053317  0.24947359
   0.19778506  0.43969549  0.24256311
   0.44654083  0.26894628  0.29825553
   0.00678237  0.66792537  0.27658089
   0.81580091  0.62171553  0.76405783
   0.73405168  0.09305337  0.72993380
   0.18991064  0.71976185  0.78522712
   0.62784215  0.32841259  0.81303339
   0.01601998  0.38047861  0.76845036
   0.98324905  0.94336358  0.77498184
   0.38541512  0.50484218  0.73688087
   0.35990679  0.02180363  0.79104816
   0.58716131  0.79807315  0.75656829
   0.90306649  0.14614368  0.20925743
   0.54185508  0.03371534  0.26653226
   0.21311573  0.21942022  0.80092728
unknown system                          
           1
     7.757182   -0.625072   -0.003756
    -1.682070    7.789845   -1.097096
     0.121791    0.846673    4.112723
   V    Fe
  17   3
Direct configuration=    10
   0.79507322  0.86408565  0.25571953
   0.81190435  0.37655265  0.30694094
   0.15537282  0.01233302  0.31229203
   0.39038916  0.76866297  0.27428684
   0.59772651  0.56986442  0.24954824
   0.19829668  0.43974978  0.24325830
   0.44550422  0.26885426  0.29902130
   0.00601782  0.66798522  0.27701898
   0.81473313  0.62137574  0.76400559
   0.73454789  0.09268999  0.72923720
   0.18960544  0.71953280  0.78489923
   0.62721061  0.32838945  0.81379235
   0.01629050  0.38112464  0.76795168
   0.98287447  0.94312528  0.77452061
   0.38615167  0.50486122  0.73665996
   0.35946800  0.02190246  0.79163156
   0.58753759  0.79838558  0.75654182
   0.90477924  0.14671994  0.20859342
   0.54278408  0.03388529  0.26580674
   0.21286260  0.21964764  0.80107569
unknown system                          
           1
     7.839880   -0.560622   -0.000613
    -1.634656    7.803832   -1.215647
     0.126507    0.781356    4.070074
   V    Fe
  17   3
Direct configuration=    11
   0.78858509  0.86331361  0.25512656
   0.80930390  0.37527533  0.30271800
   0.16034779  0.00918661  0.30550391
   0.38601948  0.76507464  0.27228013
   0.60024667  0.56675463  0.25587184
   0.19936805  0.43992573  0.25488144
   0.43444126  0.26942048  0.29969535
   0.00366199  0.67037893  0.27884680
   0.80978998  0.61854539  0.76616817
   0.73814878  0.09133658  0.72781166
   0.18865203  0.71737311  0.78003712
   0.62023646  0.32582673  0.81082783
   0.01304562  0.38680857  0.76347059
   0.98029458  0.93919127  0.76889075
   0.39476300  0.50766518  0.74471363
   0.36326172  0.01982692  0.79540427
   0.58492107  0.80211354  0.75696726
   0.91982759  0.15268981  0.21236932
   0.55331249  0.03915056  0.26076744
   0.21090246  0.21987036  0.80044992
unknown system                          
           1
     7.903245   -0.511240    0.001796
    -1.598328    7.814548   -1.306483
     0.130120    0.731309    4.037396
   V    Fe
  17   3
Direct configuration=    12
   0.78367927  0.86276560  0.25466708
   0.80734114  0.37429601  0.29942128
   0.16412731  0.00671731  0.30015764
   0.38273238  0.76235772  0.27065867
   0.60217516  0.56440170  0.26070583
   0.20018393  0.44011637  0.26390050
   0.42606628  0.26993044  0.30025915
   0.00186629  0.67222958  0.28032173
   0.80606671  0.61643301  0.76779910
   0.74088088  0.09027277  0.72666761
   0.18794046  0.71570655  0.77622153
   0.61497196  0.32390394  0.80849172
   0.01055474  0.39113877  0.76012249
   0.97836202  0.93617889  0.76444619
   0.40126775  0.50978872  0.75099913
   0.36614667  0.01823982  0.79827764
   0.58291962  0.80497537  0.75738303
   0.93118306  0.15715986  0.21538598
   0.56124687  0.04306565  0.25694147
   0.20941747  0.22004994  0.79997423
unknown system                          
           1
     7.804778   -0.491417   -0.030528
    -1.551096    7.851530   -1.230199
     0.115662    0.759515    3.962654
   V    Fe
  17   3
Direct configuration=    13
   0.77980665  0.86391065  0.25232314
   0.80486156  0.36895236  0.28953945
   0.16717283 -0.00011124  0.29393200
   0.38135013  0.76285038  0.27006660
   0.60280169  0.56414365  0.26728676
   0.19802081  0.44321516  0.27127975
   0.41821143  0.26757365  0.29500114
   0.00114621  0.67198499  0.27866128
   0.80481061  0.61558450  0.76951850
   0.74654899  0.09543401  0.73499263
   0.18943113  0.71587449  0.77314509
   0.60874200  0.31896849  0.79693099
   0.00743596  0.39457981  0.76062417
   0.97996687  0.93373123  0.75999077
   0.40182739  0.51161361  0.76600140
   0.37101082  0.01537898  0.79562779
   0.57866452  0.80686617  0.75873038
   0.94038081  0.15843661  0.22610695
   0.56736485  0.05039632  0.25786114
   0.20957473  0.22034418  0.79518209
unknown system                          
           1
     7.743931   -0.479168   -0.050502
    -1.521909    7.874382   -1.183060
     0.106728    0.776945    3.916468
   V    Fe
  17   3
Direct configuration=    14
   0.77737955  0.86462954  0.25081752
   0.80332856  0.36569643  0.28338327
   0.16910213 -0.00430218  0.29011821
   0.38048358  0.76315791  0.26968188
   0.60319679  0.56396247  0.27142963
   0.19665842  0.44510350  0.27586949
   0.41330679  0.26615098  0.29168922
   0.00069630  0.67184079  0.27761727
   0.80402903  0.61505821  0.77060413
   0.75007614  0.09857769  0.74018720
   0.19036161  0.71598558  0.77121604
   0.60486149  0.31597522  0.78969704
   0.00547221  0.39670266  0.76088200
   0.98097858  0.93223540  0.75722819
   0.40217536  0.51268842  0.77541148
   0.37406303  0.01361778  0.79402042
   0.57599657  0.80803310  0.75953398
   0.94613138  0.15917427  0.23287258
   0.57116222  0.05489957  0.25837564
   0.20967026  0.22054066  0.79216681
unknown system                          
           1
     7.736384   -0.485349   -0.060226
    -1.519989    7.957742   -1.171041
     0.101951    0.790647    3.919104
   V    Fe
  17   3
Direct configuration=    15
   0.77623314  0.86539149  0.25057935
   0.80170915  0.36294884  0.27724688
   0.17044051 -0.00860283  0.28687369
   0.38046405  0.76376431  0.27035408
   0.60320475  0.56393107  0.27436103
   0.19532497  0.44703539  0.27885311
   0.40901719  0.26475079  0.28849454
  -0.00003042  0.67117775  0.27632971
   0.80326141  0.61495537  0.77094576
   0.75409217  0.10174533  0.74545653
   0.19078334  0.71618249  0.77003738
   0.60191728  0.31401583  0.78328138
   0.00401906  0.39851122  0.76153832
   0.98206492  0.93131335  0.75560322
   0.40139444  0.51302742  0.78214735
   0.37640009  0.01261175  0.79161475
   0.57441822  0.80869136  0.76064242
   0.95110107  0.15913128  0.23999934
   0.57359584  0.05848811  0.25971128
   0.20971881  0.22065768  0.78873186
unknown system                          
           1
     7.713745   -0.503893   -0.089397
    -1.514230    8.207821   -1.134983
     0.087620    0.831751    3.927010
   V    Fe
  17   3
Direct configuration=    16
   0.77278519  0.86765362  0.24984258
   0.79685747  0.35481496  0.25889596
   0.17448428 -0.02135797  0.27724052
   0.38040216  0.76556208  0.27235716
   0.60323170  0.56382386  0.28314581
   0.19131090  0.45275659  0.28774779
   0.39614073  0.26060005  0.27891264
  -0.00220987  0.66921340  0.27247772
   0.80095710  0.61464695  0.77196520
   0.76613775  0.11113506  0.76122078
   0.19204749  0.71677368  0.76650524
   0.59308170  0.30822193  0.76406860
  -0.00035589  0.40387699  0.76346038
   0.98533172  0.92858448  0.75075941
   0.39905353  0.51400079  0.80231945
   0.38342280  0.00963935  0.78444307
   0.56967505  0.81063836  0.76393929
   0.96603295  0.15897823  0.26139578
   0.58088268  0.06914389  0.26366757
   0.20986056  0.22102169  0.77843704
unknown system                          
           1
     7.720156   -0.498642   -0.081137
    -1.515861    8.137006   -1.145194
     0.091678    0.820112    3.924772
   V    Fe
  17   3
Direct configuration=    17
   0.77376885  0.86703231  0.25006966
   0.79822642  0.35702960  0.26404524
   0.17331572 -0.01786552  0.27988613
   0.38042236  0.76507044  0.27180100
   0.60322139  0.56386479  0.28066590
   0.19245879  0.45119708  0.28527524
   0.39979384  0.26173475  0.28162517
  -0.00159316  0.66974946  0.27355992
   0.80161084  0.61473415  0.77168114
   0.76272821  0.10856841  0.75679158
   0.19169043  0.71660594  0.76750222
   0.59558672  0.30979395  0.76948187
   0.00089584  0.40240627  0.76295473
   0.98440027  0.92932691  0.75210539
   0.39971457  0.51376060  0.79663649
   0.38142464  0.01044395  0.78643634
   0.57102494  0.81010956  0.76302930
   0.96178504  0.15904129  0.25532261
   0.57883048  0.06621595  0.26258801
   0.20982382  0.22090810  0.78134404
unknown system                          
           1
     7.702769   -0.510235   -0.068317
    -1.526507    8.143738   -1.180808
     0.095955    0.805864    3.935958
   V    Fe
  17   3
Direct configuration=    18
   0.77504640  0.86763459  0.25194968
   0.79770084  0.35674545  0.26189736
   0.17354396 -0.01956622  0.27891822
   0.38143269  0.76539400  0.27336990
   0.60249523  0.56346552  0.28107560
   0.19203688  0.45200151  0.28456524
   0.39781806  0.26122318  0.28083803
  -0.00291810  0.66896047  0.27255085
   0.80100675  0.61521578  0.77058317
   0.76554527  0.10941743  0.75841037
   0.19093589  0.71644853  0.76810141
   0.59547241  0.31062450  0.76777321
   0.00083452  0.40280968  0.76325534
   0.98463091  0.92937088  0.75333905
   0.39824714  0.51281395  0.79523795
   0.38154147  0.01143742  0.78498230
   0.57236529  0.81032772  0.76388866
   0.96336584  0.15903610  0.25762631
   0.57860651  0.06597854  0.26434595
   0.20942203  0.22038896  0.78009338
unknown system                          
           1
     7.650607   -0.545013   -0.029857
    -1.558444    8.163932   -1.287649
     0.108785    0.763119    3.969518
   V    Fe
  17   3
Direct configuration=    19
   0.77889021  0.86945669  0.25758233
   0.79612000  0.35587879  0.25546510
   0.17422604 -0.02466450  0.27597544
   0.38447201  0.76637797  0.27806628
   0.60030962  0.56226802  0.28229744
   0.19077039  0.45440437  0.28246411
   0.39187383  0.25967535  0.27848451
  -0.00690532  0.66658399  0.26952070
   0.79919151  0.61664849  0.76731390
   0.77402068  0.11198556  0.76325519
   0.18866557  0.71597641  0.76989689
   0.59513166  0.31310145  0.76268110
   0.00065110  0.40401939  0.76416601
   0.98532431  0.92951111  0.75703099
   0.39383103  0.50996221  0.79103912
   0.38189633  0.01440510  0.78065468
   0.57639731  0.81099366  0.76645587
   0.96811985  0.15904291  0.26450910
   0.57793138  0.06527659  0.26960354
   0.20821249  0.21882445  0.77633972
unknown system                          
           1
     7.631899   -0.557486   -0.016064
    -1.569899    8.171175   -1.325968
     0.113386    0.747789    3.981554
   V    Fe
  17   3
Direct configuration=    20
   0.78028096  0.87012652  0.25959502
   0.79554849  0.35555285  0.25316987
   0.17446782 -0.02648927  0.27487855
   0.38557118  0.76674505  0.27973999
   0.59951804  0.56183876  0.28272799
   0.19031528  0.45525524  0.28174096
   0.38972351  0.25910610  0.27764855
  -0.00834887  0.66572140  0.26843062
   0.79853716  0.61714951  0.76616724
   0.77708681  0.11292925  0.76498096
   0.18784402  0.71580712  0.77053868
   0.59501173  0.31397435  0.76089037
   0.00058590  0.40445277  0.76450202
   0.98557462  0.92957025  0.75834572
   0.39223212  0.50892667  0.78952951
   0.38202829  0.01545616  0.77913885
   0.57785535  0.81124474  0.76736529
   0.96983763  0.15906915  0.26694809
   0.57768583  0.06503565  0.27147228
   0.20777413  0.21825572  0.77499145
unknown system                          
           1
     7.574604   -0.564407   -0.001440
    -1.572813    8.105901   -1.316724
     0.119101    0.743246    3.956096
   V    Fe
  17   3
Direct configuration=    21
   0.78271028  0.87134313  0.26325799
   0.79440748  0.35531806  0.25258694
   0.17494526 -0.02862916  0.27343736
   0.38769387  0.76785904  0.28116452
   0.59677037  0.56109458  0.28134221
   0.18977954  0.45623691  0.27951068
   0.38658767  0.25841889  0.27655691
  -0.01084988  0.66447306  0.26623301
   0.79695377  0.61733570  0.76421048
   0.78203881  0.11396756  0.76608593
   0.18734373  0.71584184  0.77278673
   0.59545025  0.31487594  0.76020418
  -0.00017779  0.40487125  0.76466663
   0.98643777  0.92944068  0.76203534
   0.38971510  0.50728475  0.78587616
   0.38291691  0.01695280  0.77771418
   0.58092305  0.81211502  0.76965869
   0.97262472  0.15985362  0.26939309
   0.57758414  0.06441058  0.27308527
   0.20527497  0.21666377  0.77299571
unknown system                          
           1
     7.575810   -0.564262   -0.001748
    -1.572751    8.107275   -1.316918
     0.118980    0.743341    3.956631
   V    Fe
  17   3
Direct configuration=    22
   0.78265877  0.87131724  0.26318057
   0.79443168  0.35532308  0.25259921
   0.17493520 -0.02858379  0.27346792
   0.38764883  0.76783534  0.28113449
   0.59682865  0.56111046  0.28137138
   0.18979082  0.45621610  0.27955787
   0.38665419  0.25843357  0.27657982
  -0.01079683  0.66449963  0.26627939
   0.79698731  0.61733180  0.76425181
   0.78193376  0.11394536  0.76606285
   0.18735438  0.71584113  0.77273909
   0.59544090  0.31485680  0.76021873
  -0.00016161  0.40486240  0.76466309
   0.98641953  0.92944340  0.76195726
   0.38976849  0.50731966  0.78595337
   0.38289797  0.01692102  0.77774439
   0.58085799  0.81209645  0.76961032
   0.97256562  0.15983688  0.26934149
   0.57758635  0.06442385  0.27305111
   0.20532800  0.21669762  0.77303782
unknown system                          
           1
     7.603196   -0.568865    0.003677
    -1.584806    8.100452   -1.284476
     0.122992    0.759451    3.958485
   V    Fe
  17   3
Direct configuration=    23
   0.78399722  0.87189733  0.26592690
   0.79333112  0.35544880  0.25451594
   0.17551961 -0.02945516  0.27286414
   0.38920259  0.76884106  0.28109964
   0.59384845  0.56075850  0.27863045
   0.18948024  0.45656235  0.27729078
   0.38499574  0.25816058  0.27577347
  -0.01218017  0.66396048  0.26494022
   0.79539241  0.61686301  0.76301526
   0.78505508  0.11431856  0.76573184
   0.18773160  0.71606897  0.77470468
   0.59586355  0.31477415  0.76119136
  -0.00143549  0.40509737  0.76449224
   0.98748855  0.92893415  0.76536805
   0.38834571  0.50666101  0.78299571
   0.38431413  0.01747186  0.77767757
   0.58314587  0.81307827  0.77181441
   0.97478432  0.16100785  0.26997736
   0.57812893  0.06412685  0.27291913
   0.20212055  0.21515202  0.77187288
unknown system                          
           1
     7.645191   -0.575924    0.011995
    -1.603292    8.089989   -1.234727
     0.129144    0.784155    3.961328
   V    Fe
  17   3
Direct configuration=    24
   0.78604047  0.87278108  0.27012431
   0.79164706  0.35563545  0.25745250
   0.17641073 -0.03079144  0.27194840
   0.39158012  0.77038706  0.28103154
   0.58929713  0.56022406  0.27444172
   0.18900993  0.45710080  0.27381466
   0.38246173  0.25774253  0.27454465
  -0.01429388  0.66313539  0.26289783
   0.79295550  0.61614554  0.76112965
   0.78982643  0.11489490  0.76521457
   0.18830599  0.71641333  0.77771212
   0.59650778  0.31464458  0.76268138
  -0.00338113  0.40545794  0.76423018
   0.98911571  0.92814242  0.77059654
   0.38617363  0.50565718  0.77847565
   0.38647999  0.01831913  0.77756608
   0.58664199  0.81458135  0.77517474
   0.97817754  0.16280611  0.27093346
   0.57895729  0.06367139  0.27271942
   0.19721598  0.21277921  0.77011262
unknown system                          
           1
     7.644538   -0.581526    0.022076
    -1.611091    8.084814   -1.242067
     0.133651    0.782680    3.973464
   V    Fe
  17   3
Direct configuration=    25
   0.78588682  0.87240138  0.27137932
   0.79069190  0.35573654  0.25868308
   0.17715768 -0.03086841  0.27318479
   0.39170158  0.77053874  0.28083985
   0.58819886  0.56035976  0.27227424
   0.18844439  0.45697624  0.27240399
   0.38257121  0.25764055  0.27433986
  -0.01368108  0.66337416  0.26470625
   0.79194734  0.61538295  0.76137224
   0.79014145  0.11497689  0.76525945
   0.18888150  0.71658773  0.77681593
   0.59575902  0.31394965  0.76322949
  -0.00434830  0.40605573  0.76404156
   0.98997948  0.92728374  0.77131630
   0.38579382  0.50613917  0.77706572
   0.38753139  0.01802250  0.77796723
   0.58664807  0.81494630  0.77587077
   0.97861651  0.16333761  0.27100935
   0.58027543  0.06426662  0.27172855
   0.19693294  0.21262015  0.76931401
unknown system                          
           1
     7.643738   -0.588397    0.034438
    -1.620654    8.078468   -1.251069
     0.139179    0.780872    3.988347
   V    Fe
  17   3
Direct configuration=    26
   0.78569714  0.87193599  0.27291338
   0.78951964  0.35586014  0.26019066
   0.17807319 -0.03096134  0.27469434
   0.39185087  0.77072489  0.28060551
   0.58685297  0.56052386  0.26962731
   0.18775124  0.45682201  0.27068036
   0.38270548  0.25751544  0.27408891
  -0.01293001  0.66366878  0.26691640
   0.79070944  0.61444625  0.76166978
   0.79052797  0.11507788  0.76531366
   0.18958822  0.71680189  0.77571897
   0.59483927  0.31309644  0.76390005
  -0.00553385  0.40678799  0.76381507
   0.99103753  0.92623153  0.77219189
   0.38532931  0.50672939  0.77534397
   0.38882054  0.01765996  0.77845411
   0.58665562  0.81539446  0.77672272
   0.97915569  0.16399029  0.27110225
   0.58189376  0.06499792  0.27051480
   0.19658596  0.21242423  0.76833790
unknown system                          
           1
     7.625178   -0.588962    0.040964
    -1.620729    8.048248   -1.246850
     0.142130    0.779797    3.983009
   V    Fe
  17   3
Direct configuration=    27
   0.78584277  0.87163315  0.27383490
   0.78856011  0.35594944  0.26126333
   0.17888178 -0.03083099  0.27584956
   0.39178212  0.77080101  0.27986379
   0.58614939  0.56063608  0.26779866
   0.18702725  0.45666123  0.26947358
   0.38287155  0.25748956  0.27387208
  -0.01248375  0.66385376  0.26903932
   0.78984474  0.61380876  0.76249522
   0.79080263  0.11507576  0.76560492
   0.19008008  0.71691402  0.77474042
   0.59388041  0.31264520  0.76417267
  -0.00646165  0.40725442  0.76384641
   0.99163240  0.92548734  0.77275553
   0.38480001  0.50707944  0.77383574
   0.38974654  0.01762195  0.77854527
   0.58657731  0.81553029  0.77686274
   0.97929577  0.16420963  0.27126021
   0.58348767  0.06547023  0.26995017
   0.19681286  0.21243772  0.76773748
unknown system                          
           1
     7.628656   -0.588856    0.039741
    -1.620715    8.053911   -1.247641
     0.141577    0.779999    3.984010
   V    Fe
  17   3
Direct configuration=    28
   0.78581553  0.87169011  0.27366204
   0.78874044  0.35593272  0.26106178
   0.17872995 -0.03085556  0.27563303
   0.39179497  0.77078669  0.28000294
   0.58628140  0.56061502  0.26814157
   0.18716319  0.45669152  0.26969980
   0.38284034  0.25749441  0.27391281
  -0.01256744  0.66381894  0.26864112
   0.79000735  0.61392874  0.76234011
   0.79075105  0.11507614  0.76555035
   0.18998759  0.71689289  0.77492416
   0.59406063  0.31273015  0.76412125
  -0.00628743  0.40716676  0.76384025
   0.99152080  0.92562727  0.77264996
   0.38489927  0.50701363  0.77411857
   0.38957259  0.01762903  0.77852843
   0.58659201  0.81550475  0.77683644
   0.97926944  0.16416836  0.27123060
   0.58318813  0.06538127  0.27005656
   0.19677019  0.21243516  0.76785021
unknown system                          
           1
     7.635065   -0.587964    0.038879
    -1.621179    8.051779   -1.243630
     0.141463    0.781538    3.982669
   V    Fe
  17   3
Direct configuration=    29
   0.78619058  0.87165714  0.27366267
   0.78850150  0.35598155  0.26124821
   0.17898431 -0.03068302  0.27573154
   0.39167621  0.77075044  0.27925108
   0.58636918  0.56064981  0.26793666
   0.18683988  0.45664790  0.26953716
   0.38287271  0.25758665  0.27373373
  -0.01272925  0.66375112  0.26937932
   0.78992318  0.61394329  0.76306326
   0.79089255  0.11499578  0.76587349
   0.18997943  0.71686682  0.77470887
   0.59371359  0.31286900  0.76396411
  -0.00651277  0.40712949  0.76410105
   0.99142480  0.92554178  0.77283758
   0.38459523  0.50698342  0.77351573
   0.38973969  0.01785890  0.77824393
   0.58662825  0.81534836  0.77640660
   0.97917152  0.16397460  0.27133153
   0.58378201  0.06533815  0.27034410
   0.19708740  0.21253682  0.76793138
unknown system                          
           1
     7.649631   -0.585937    0.036919
    -1.622235    8.046935   -1.234514
     0.141203    0.785035    3.979624
   V    Fe
  17   3
Direct configuration=    30
   0.78704211  0.87158204  0.27366431
   0.78795898  0.35609256  0.26167180
   0.17956189 -0.03029093  0.27595521
   0.39140663  0.77066844  0.27754204
   0.58656851  0.56072898  0.26747084
   0.18610581  0.45654896  0.26916744
   0.38294626  0.25779642  0.27332648
  -0.01309671  0.66359664  0.27105739
   0.78973202  0.61397604  0.76470701
   0.79121377  0.11481286  0.76660822
   0.18996092  0.71680768  0.77421952
   0.59292571  0.31318490  0.76360649
  -0.00702444  0.40704472  0.76469387
   0.99120677  0.92534737  0.77326420
   0.38390494  0.50691517  0.77214537
   0.39011918  0.01838155  0.77759682
   0.58671051  0.81499304  0.77542985
   0.97894912  0.16353411  0.27156130
   0.58513037  0.06523972  0.27099801
   0.19780765  0.21276773  0.76811581
unknown system                          
           1
     7.648765   -0.588018    0.037208
    -1.624059    8.049606   -1.239333
     0.140970    0.783164    3.981782
   V    Fe
  17   3
Direct configuration=    31
   0.78729536  0.87136196  0.27377991
   0.78770176  0.35602235  0.26202915
   0.17969819 -0.03020957  0.27585182
   0.39142253  0.77058686  0.27649919
   0.58645518  0.56090851  0.26722161
   0.18574765  0.45651471  0.26906698
   0.38301735  0.25807845  0.27285477
  -0.01326643  0.66347360  0.27193723
   0.78964063  0.61401161  0.76567700
   0.79129792  0.11477390  0.76694534
   0.18984941  0.71685969  0.77387963
   0.59288102  0.31341906  0.76352110
  -0.00720780  0.40685299  0.76523478