  20  20   0   0
  0.1295360E+02  0.6387867E-09  0.6387867E-09  0.6387867E-09  0.5000000E-15
  1.000000000000000E-004
  CAR 
 unknown system                          
      8.54918817     -1.52485289  301      6.49353475      1.00000000
     -1.525  0.0000E+00  0.0000E+00
     -1.491  0.0000E+00  0.0000E+00
     -1.458  0.0000E+00  0.0000E+00
     -1.424  0.0000E+00  0.0000E+00
     -1.391  0.0000E+00  0.0000E+00
     -1.357  0.0000E+00  0.0000E+00
     -1.323  0.0000E+00  0.0000E+00
     -1.290  0.0000E+00  0.0000E+00
     -1.256  0.0000E+00  0.0000E+00
     -1.223  0.0000E+00  0.0000E+00
     -1.189  0.0000E+00  0.0000E+00
     -1.155  0.0000E+00  0.0000E+00
     -1.122  0.0000E+00  0.0000E+00
     -1.088  0.1157E-16  0.3886E-18
     -1.055  0.4877E-15  0.1676E-16
     -1.021  0.1617E-13  0.5598E-15
     -0.988  0.4298E-12  0.1499E-13
     -0.954  0.9140E-11  0.3219E-12
     -0.920  0.1556E-09  0.5547E-11
     -0.887  0.2120E-08  0.7674E-10
     -0.853  0.2313E-07  0.8533E-09
     -0.820  0.2020E-06  0.7637E-08
     -0.786  0.1413E-05  0.5509E-07
     -0.753  0.7918E-05  0.3210E-06
     -0.719  0.3554E-04  0.1514E-05
     -0.685  0.1278E-03  0.5805E-05
     -0.652  0.3682E-03  0.1817E-04
     -0.618  0.8500E-03  0.4671E-04
     -0.585  0.1573E-02  0.9952E-04
     -0.551  0.2332E-02  0.1778E-03
     -0.517  0.2771E-02  0.2708E-03
     -0.484  0.2639E-02  0.3595E-03
     -0.450  0.2014E-02  0.4271E-03
     -0.417  0.1232E-02  0.4685E-03
     -0.383  0.6040E-03  0.4887E-03
     -0.350  0.2373E-03  0.4967E-03
     -0.316  0.7469E-04  0.4992E-03
     -0.282  0.1884E-04  0.4998E-03
     -0.249  0.3806E-05  0.5000E-03
     -0.215  0.6159E-06  0.5000E-03
     -0.182  0.7983E-07  0.5000E-03
     -0.148  0.8286E-08  0.5000E-03
     -0.114  0.6887E-09  0.5000E-03
     -0.081  0.4582E-10  0.5000E-03
     -0.047  0.2440E-11  0.5000E-03
     -0.014  0.1057E-12  0.5000E-03
      0.020  0.5872E-13  0.5000E-03
      0.053  0.1454E-11  0.5000E-03
      0.087  0.3066E-10  0.5000E-03
      0.121  0.5175E-09  0.5000E-03
      0.154  0.6992E-08  0.5000E-03
      0.188  0.7563E-07  0.5000E-03
      0.221  0.6551E-06  0.5000E-03
      0.255  0.4545E-05  0.5002E-03
      0.288  0.2525E-04  0.5010E-03
      0.322  0.1124E-03  0.5048E-03
      0.356  0.4011E-03  0.5183E-03
      0.389  0.1148E-02  0.5568E-03
      0.423  0.2639E-02  0.6454E-03
      0.456  0.4894E-02  0.8098E-03
      0.490  0.7390E-02  0.1058E-02
      0.524  0.9284E-02  0.1370E-02
      0.557  0.1015E-01  0.1710E-02
      0.591  0.1031E-01  0.2057E-02
      0.624  0.1030E-01  0.2402E-02
      0.658  0.9969E-02  0.2737E-02
      0.691  0.8773E-02  0.3032E-02
      0.725  0.6599E-02  0.3253E-02
      0.759  0.4098E-02  0.3391E-02
      0.792  0.2090E-02  0.3461E-02
      0.826  0.9735E-03  0.3494E-02
      0.859  0.7673E-03  0.3520E-02
      0.893  0.1490E-02  0.3570E-02
      0.926  0.3295E-02  0.3680E-02
      0.960  0.6143E-02  0.3887E-02
      0.994  0.9381E-02  0.4202E-02
      1.027  0.1188E-01  0.4601E-02
      1.061  0.1291E-01  0.5034E-02
      1.094  0.1269E-01  0.5460E-02
      1.128  0.1196E-01  0.5862E-02
      1.162  0.1097E-01  0.6230E-02
      1.195  0.9458E-02  0.6548E-02
      1.229  0.7454E-02  0.6798E-02
      1.262  0.5549E-02  0.6985E-02
      1.296  0.4275E-02  0.7128E-02
      1.329  0.3559E-02  0.7248E-02
      1.363  0.2948E-02  0.7347E-02
      1.397  0.2173E-02  0.7420E-02
      1.430  0.1337E-02  0.7465E-02
      1.464  0.6683E-03  0.7487E-02
      1.497  0.2690E-03  0.7496E-02
      1.531  0.8694E-04  0.7499E-02
      1.565  0.2284E-04  0.7500E-02
      1.598  0.7130E-05  0.7500E-02
      1.632  0.1549E-04  0.7501E-02
      1.665  0.7061E-04  0.7503E-02
      1.699  0.2710E-03  0.7512E-02
      1.732  0.8367E-03  0.7540E-02
      1.766  0.2080E-02  0.7610E-02
      1.800  0.4187E-02  0.7751E-02
      1.833  0.6901E-02  0.7982E-02
      1.867  0.9502E-02  0.8301E-02
      1.900  0.1129E-01  0.8681E-02
      1.934  0.1205E-01  0.9085E-02
      1.967  0.1185E-01  0.9483E-02
      2.001  0.1067E-01  0.9842E-02
      2.035  0.8478E-02  0.1013E-01
      2.068  0.5732E-02  0.1032E-01
      2.102  0.3221E-02  0.1043E-01
      2.135  0.1539E-02  0.1048E-01
      2.169  0.8233E-03  0.1051E-01
      2.203  0.9684E-03  0.1054E-01
      2.236  0.1866E-02  0.1060E-01
      2.270  0.3315E-02  0.1071E-01
      2.303  0.4798E-02  0.1087E-01
      2.337  0.5587E-02  0.1106E-01
      2.370  0.5276E-02  0.1124E-01
      2.404  0.4258E-02  0.1138E-01
      2.438  0.3673E-02  0.1151E-01
      2.471  0.5002E-02  0.1167E-01
      2.505  0.9563E-02  0.1199E-01
      2.538  0.1779E-01  0.1259E-01
      2.572  0.2833E-01  0.1354E-01
      2.606  0.3814E-01  0.1482E-01
      2.639  0.4416E-01  0.1631E-01
      2.673  0.4535E-01  0.1783E-01
      2.706  0.4277E-01  0.1927E-01
      2.740  0.3794E-01  0.2054E-01
      2.773  0.3197E-01  0.2161E-01
      2.807  0.2643E-01  0.2250E-01
      2.841  0.2368E-01  0.2330E-01
      2.874  0.2553E-01  0.2415E-01
      2.908  0.3159E-01  0.2521E-01
      2.941  0.3935E-01  0.2653E-01
      2.975  0.4588E-01  0.2808E-01
      3.008  0.4948E-01  0.2974E-01
      3.042  0.5025E-01  0.3142E-01
      3.076  0.4948E-01  0.3309E-01
      3.109  0.4877E-01  0.3472E-01
      3.143  0.4907E-01  0.3637E-01
      3.176  0.5032E-01  0.3806E-01
      3.210  0.5195E-01  0.3981E-01
      3.244  0.5412E-01  0.4162E-01
      3.277  0.5788E-01  0.4357E-01
      3.311  0.6356E-01  0.4570E-01
      3.344  0.6938E-01  0.4803E-01
      3.378  0.7230E-01  0.5046E-01
      3.411  0.7068E-01  0.5283E-01
      3.445  0.6547E-01  0.5503E-01
      3.479  0.5896E-01  0.5701E-01
      3.512  0.5283E-01  0.5878E-01
      3.546  0.4763E-01  0.6038E-01
      3.579  0.4348E-01  0.6184E-01
      3.613  0.4069E-01  0.6321E-01
      3.646  0.3951E-01  0.6454E-01
      3.680  0.3961E-01  0.6587E-01
      3.714  0.4021E-01  0.6722E-01
      3.747  0.4074E-01  0.6859E-01
      3.781  0.4138E-01  0.6997E-01
      3.814  0.4271E-01  0.7141E-01
      3.848  0.4501E-01  0.7292E-01
      3.882  0.4776E-01  0.7452E-01
      3.915  0.4970E-01  0.7619E-01
      3.949  0.4952E-01  0.7786E-01
      3.982  0.4713E-01  0.7944E-01
      4.016  0.4423E-01  0.8092E-01
      4.049  0.4357E-01  0.8239E-01
      4.083  0.4660E-01  0.8395E-01
      4.117  0.5172E-01  0.8569E-01
      4.150  0.5528E-01  0.8754E-01
      4.184  0.5499E-01  0.8939E-01
      4.217  0.5238E-01  0.9115E-01
      4.251  0.5138E-01  0.9288E-01
      4.285  0.5466E-01  0.9471E-01
      4.318  0.6175E-01  0.9678E-01
      4.352  0.7015E-01  0.9914E-01
      4.385  0.7715E-01  0.1017E+00
      4.419  0.8058E-01  0.1044E+00
      4.452  0.7932E-01  0.1071E+00
      4.486  0.7422E-01  0.1096E+00
      4.520  0.6827E-01  0.1119E+00
      4.553  0.6476E-01  0.1141E+00
      4.587  0.6497E-01  0.1162E+00
      4.620  0.6754E-01  0.1185E+00
      4.654  0.6992E-01  0.1209E+00
      4.687  0.7008E-01  0.1232E+00
      4.721  0.6724E-01  0.1255E+00
      4.755  0.6171E-01  0.1275E+00
      4.788  0.5445E-01  0.1294E+00
      4.822  0.4679E-01  0.1309E+00
      4.855  0.4037E-01  0.1323E+00
      4.889  0.3660E-01  0.1335E+00
      4.923  0.3599E-01  0.1347E+00
      4.956  0.3828E-01  0.1360E+00
      4.990  0.4321E-01  0.1375E+00
      5.023  0.5091E-01  0.1392E+00
      5.057  0.6070E-01  0.1412E+00
      5.090  0.7011E-01  0.1436E+00
      5.124  0.7615E-01  0.1461E+00
      5.158  0.7784E-01  0.1487E+00
      5.191  0.7692E-01  0.1513E+00
      5.225  0.7568E-01  0.1539E+00
      5.258  0.7480E-01  0.1564E+00
      5.292  0.7346E-01  0.1588E+00
      5.325  0.7097E-01  0.1612E+00
      5.359  0.6748E-01  0.1635E+00
      5.393  0.6347E-01  0.1656E+00
      5.426  0.5894E-01  0.1676E+00
      5.460  0.5353E-01  0.1694E+00
      5.493  0.4730E-01  0.1710E+00
      5.527  0.4134E-01  0.1724E+00
      5.561  0.3736E-01  0.1736E+00
      5.594  0.3694E-01  0.1749E+00
      5.628  0.4044E-01  0.1762E+00
      5.661  0.4640E-01  0.1778E+00
      5.695  0.5213E-01  0.1795E+00
      5.728  0.5556E-01  0.1814E+00
      5.762  0.5666E-01  0.1833E+00
      5.796  0.5683E-01  0.1852E+00
      5.829  0.5722E-01  0.1871E+00
      5.863  0.5792E-01  0.1891E+00
      5.896  0.5834E-01  0.1910E+00
      5.930  0.5793E-01  0.1930E+00
      5.964  0.5658E-01  0.1949E+00
      5.997  0.5455E-01  0.1967E+00
      6.031  0.5232E-01  0.1985E+00
      6.064  0.5022E-01  0.2002E+00
      6.098  0.4820E-01  0.2018E+00
      6.131  0.4559E-01  0.2033E+00
      6.165  0.4152E-01  0.2047E+00
      6.199  0.3584E-01  0.2059E+00
      6.232  0.2997E-01  0.2069E+00
      6.266  0.2644E-01  0.2078E+00
      6.299  0.2722E-01  0.2087E+00
      6.333  0.3223E-01  0.2098E+00
      6.366  0.3964E-01  0.2111E+00
      6.400  0.4733E-01  0.2127E+00
      6.434  0.5374E-01  0.2145E+00
      6.467  0.5768E-01  0.2165E+00
      6.501  0.5821E-01  0.2184E+00
      6.534  0.5542E-01  0.2203E+00
      6.568  0.5075E-01  0.2220E+00
      6.602  0.4605E-01  0.2235E+00
      6.635  0.4256E-01  0.2250E+00
      6.669  0.4105E-01  0.2263E+00
      6.702  0.4228E-01  0.2278E+00
      6.736  0.4611E-01  0.2293E+00
      6.769  0.5024E-01  0.2310E+00
      6.803  0.5113E-01  0.2327E+00
      6.837  0.4712E-01  0.2343E+00
      6.870  0.4024E-01  0.2356E+00
      6.904  0.3461E-01  0.2368E+00
      6.937  0.3353E-01  0.2379E+00
      6.971  0.3809E-01  0.2392E+00
      7.005  0.4707E-01  0.2408E+00
      7.038  0.5714E-01  0.2427E+00
      7.072  0.6396E-01  0.2449E+00
      7.105  0.6479E-01  0.2470E+00
      7.139  0.6061E-01  0.2491E+00
      7.172  0.5526E-01  0.2509E+00
      7.206  0.5256E-01  0.2527E+00
      7.240  0.5377E-01  0.2545E+00
      7.273  0.5717E-01  0.2564E+00
      7.307  0.5941E-01  0.2584E+00
      7.340  0.5806E-01  0.2604E+00
      7.374  0.5339E-01  0.2622E+00
      7.407  0.4803E-01  0.2638E+00
      7.441  0.4469E-01  0.2653E+00
      7.475  0.4382E-01  0.2667E+00
      7.508  0.4311E-01  0.2682E+00
      7.542  0.3942E-01  0.2695E+00
      7.575  0.3160E-01  0.2706E+00
      7.609  0.2151E-01  0.2713E+00
      7.643  0.1222E-01  0.2717E+00
      7.676  0.5741E-02  0.2719E+00
      7.710  0.2216E-02  0.2720E+00
      7.743  0.6992E-03  0.2720E+00
      7.777  0.1797E-03  0.2720E+00
      7.810  0.3750E-04  0.2720E+00
      7.844  0.6336E-05  0.2720E+00
      7.878  0.8648E-06  0.2720E+00
      7.911  0.9520E-07  0.2720E+00
      7.945  0.8438E-08  0.2720E+00
      7.978  0.6016E-09  0.2720E+00
      8.012  0.3446E-10  0.2720E+00
      8.045  0.1585E-11  0.2720E+00
      8.079  0.5851E-13  0.2720E+00
      8.113  0.1732E-14  0.2720E+00
      8.146  0.3802E-16  0.2720E+00
      8.180  0.0000E+00  0.2720E+00
      8.213  0.0000E+00  0.2720E+00
      8.247  0.0000E+00  0.2720E+00
      8.281  0.0000E+00  0.2720E+00
      8.314  0.0000E+00  0.2720E+00
      8.348  0.0000E+00  0.2720E+00
      8.381  0.0000E+00  0.2720E+00
      8.415  0.0000E+00  0.2720E+00
      8.448  0.0000E+00  0.2720E+00
      8.482  0.0000E+00  0.2720E+00
      8.516  0.0000E+00  0.2720E+00
      8.549  0.0000E+00  0.2720E+00
