   20   20  500    1
  0.1295360E+02  0.6387867E-09  0.6387866E-09  0.6387867E-09  0.5000000E-15
  1.000000000000000E-004
  CAR 
 unknown system                          
    109      4     68
 
  0.0000000E+00  0.0000000E+00  0.0000000E+00  0.1250000E+00
    1       -0.524853   1.000000
    2        2.604854   1.000000
    3        2.604854   1.000000
    4        2.756261   1.000000
    5        2.756262   1.000000
    6        2.894391   1.000000
    7        2.960048   1.000000
    8        3.026837   1.000000
    9        3.026837   1.000000
   10        3.076150   1.000000
   11        3.076150   1.000000
   12        3.411580   1.000000
   13        3.466811   1.000000
   14        3.466812   1.000000
   15        3.668173   1.000000
   16        3.668173   1.000000
   17        3.711766   1.000000
   18        3.727712   1.000000
   19        3.978515   1.000000
   20        3.978515   1.000000
   21        4.061115   1.000000
   22        4.136729   1.000000
   23        4.228880   1.000000
   24        4.344144   1.000000
   25        4.344144   1.000000
   26        4.447977   1.000000
   27        4.531248   1.000000
   28        4.531248   1.000000
   29        4.576677   1.000000
   30        4.617147   1.000000
   31        4.617147   1.000000
   32        4.748385   1.000000
   33        4.814647   1.000000
   34        4.814647   1.000000
   35        4.896866   1.000000
   36        5.052905   1.000000
   37        5.066363   1.000000
   38        5.066363   1.000000
   39        5.211062   1.000000
   40        5.215370   1.000000
   41        5.215370   1.000000
   42        5.412011   1.000000
   43        5.412011   1.000000
   44        5.452776   1.000000
   45        5.555716   1.000000
   46        5.555717   1.000000
   47        5.666028   1.000000
   48        5.676319   1.000000
   49        5.676319   1.000000
   50        5.902696   1.000000
   51        6.001208   1.000000
   52        6.001208   1.000000
   53        6.274382   0.999030
   54        6.418776   0.854800
   55        6.418777   0.854799
   56        6.622935   0.033625
   57        6.622935   0.033625
   58        6.764705   0.000063
   59        6.764705   0.000063
   60        6.825946   0.000001
   61        7.003076   0.000000
   62        7.065240   0.000000
   63        7.074154   0.000000
   64        7.074154   0.000000
   65        7.165766   0.000000
   66        7.165766   0.000000
   67        7.241176   0.000000
   68        7.539746   0.000000
 
  0.5000000E+00 -0.1181144E-17 -0.8570664E-17  0.3750000E+00
    1        0.514857   1.000000
    2        0.655537   1.000000
    3        2.630099   1.000000
    4        2.732447   1.000000
    5        2.742318   1.000000
    6        2.935556   1.000000
    7        2.976868   1.000000
    8        3.031067   1.000000
    9        3.198185   1.000000
   10        3.199272   1.000000
   11        3.331839   1.000000
   12        3.367535   1.000000
   13        3.394802   1.000000
   14        3.430572   1.000000
   15        3.471326   1.000000
   16        3.553797   1.000000
   17        3.689706   1.000000
   18        3.762375   1.000000
   19        3.860616   1.000000
   20        3.905743   1.000000
   21        3.930851   1.000000
   22        4.143861   1.000000
   23        4.172260   1.000000
   24        4.299593   1.000000
   25        4.327955   1.000000
   26        4.367600   1.000000
   27        4.395416   1.000000
   28        4.482625   1.000000
   29        4.561027   1.000000
   30        4.593954   1.000000
   31        4.670279   1.000000
   32        4.685696   1.000000
   33        4.777238   1.000000
   34        4.916158   1.000000
   35        4.982559   1.000000
   36        5.046439   1.000000
   37        5.110583   1.000000
   38        5.113284   1.000000
   39        5.225726   1.000000
   40        5.262866   1.000000
   41        5.368839   1.000000
   42        5.390507   1.000000
   43        5.433486   1.000000
   44        5.488751   1.000000
   45        5.563295   1.000000
   46        5.774897   1.000000
   47        5.855057   1.000000
   48        5.866245   1.000000
   49        5.929247   1.000000
   50        6.004620   1.000000
   51        6.113026   1.000000
   52        6.183579   0.999994
   53        6.401134   0.904350
   54        6.472558   0.616636
   55        6.491401   0.512039
   56        6.546432   0.227205
   57        6.576080   0.121530
   58        6.632174   0.024960
   59        6.744671   0.000191
   60        6.780245   0.000025
   61        7.030812   0.000000
   62        7.061959   0.000000
   63        7.201958   0.000000
   64        7.298461   0.000000
   65        7.298662   0.000000
   66        7.324021   0.000000
   67        7.485789   0.000000
   68        7.524182   0.000000
 
  0.5000000E+00  0.5000000E+00 -0.2882768E-17  0.3750000E+00
    1        1.028491   1.000000
    2        1.158383   1.000000
    3        1.869139   1.000000
    4        1.984588   1.000000
    5        2.600274   1.000000
    6        2.654092   1.000000
    7        2.962510   1.000000
    8        3.068804   1.000000
    9        3.125425   1.000000
   10        3.166773   1.000000
   11        3.249789   1.000000
   12        3.277789   1.000000
   13        3.337978   1.000000
   14        3.372705   1.000000
   15        3.498805   1.000000
   16        3.551141   1.000000
   17        3.613123   1.000000
   18        3.807042   1.000000
   19        3.913898   1.000000
   20        4.003586   1.000000
   21        4.110191   1.000000
   22        4.110383   1.000000
   23        4.175512   1.000000
   24        4.268417   1.000000
   25        4.312359   1.000000
   26        4.413758   1.000000
   27        4.416734   1.000000
   28        4.445684   1.000000
   29        4.475885   1.000000
   30        4.645697   1.000000
   31        4.726224   1.000000
   32        4.731273   1.000000
   33        4.809348   1.000000
   34        4.958879   1.000000
   35        5.088417   1.000000
   36        5.097021   1.000000
   37        5.119673   1.000000
   38        5.165769   1.000000
   39        5.252124   1.000000
   40        5.300057   1.000000
   41        5.309170   1.000000
   42        5.345097   1.000000
   43        5.461746   1.000000
   44        5.673700   1.000000
   45        5.697945   1.000000
   46        5.733398   1.000000
   47        5.825389   1.000000
   48        5.941326   1.000000
   49        6.018702   1.000000
   50        6.071513   1.000000
   51        6.179140   0.999996
   52        6.333749   0.988080
   53        6.358184   0.972200
   54        6.463507   0.664456
   55        6.498786   0.470402
   56        6.668451   0.006686
   57        6.790927   0.000013
   58        6.792999   0.000011
   59        6.907669   0.000000
   60        7.030313   0.000000
   61        7.078605   0.000000
   62        7.096344   0.000000
   63        7.116678   0.000000
   64        7.266658   0.000000
   65        7.292690   0.000000
   66        7.381481   0.000000
   67        7.491518   0.000000
   68        7.549188   0.000000
 
  0.5000000E+00  0.5000000E+00  0.5000000E+00  0.1250000E+00
    1        1.004299   1.000000
    2        1.326104   1.000000
    3        2.326036   1.000000
    4        2.326036   1.000000
    5        2.568227   1.000000
    6        2.592253   1.000000
    7        2.592253   1.000000
    8        2.678716   1.000000
    9        2.885617   1.000000
   10        2.885617   1.000000
   11        3.167261   1.000000
   12        3.329932   1.000000
   13        3.329932   1.000000
   14        3.351463   1.000000
   15        3.351463   1.000000
   16        3.651861   1.000000
   17        3.727353   1.000000
   18        3.827967   1.000000
   19        3.827967   1.000000
   20        3.978696   1.000000
   21        3.978696   1.000000
   22        4.130411   1.000000
   23        4.130411   1.000000
   24        4.409699   1.000000
   25        4.421497   1.000000
   26        4.421497   1.000000
   27        4.476245   1.000000
   28        4.584576   1.000000
   29        4.584576   1.000000
   30        4.642462   1.000000
   31        4.642462   1.000000
   32        4.658000   1.000000
   33        4.712663   1.000000
   34        4.858309   1.000000
   35        5.160049   1.000000
   36        5.187033   1.000000
   37        5.187033   1.000000
   38        5.229473   1.000000
   39        5.297879   1.000000
   40        5.297879   1.000000
   41        5.652232   1.000000
   42        5.652232   1.000000
   43        5.661822   1.000000
   44        5.738118   1.000000
   45        5.789884   1.000000
   46        5.789884   1.000000
   47        5.807097   1.000000
   48        5.907087   1.000000
   49        5.907087   1.000000
   50        5.943663   1.000000
   51        6.091137   1.000000
   52        6.091137   1.000000
   53        6.142334   1.000000
   54        6.142334   1.000000
   55        6.363391   0.967153
   56        6.450092   0.730515
   57        6.816457   0.000002
   58        6.816457   0.000002
   59        6.940133   0.000000
   60        6.940133   0.000000
   61        7.005689   0.000000
   62        7.189305   0.000000
   63        7.189306   0.000000
   64        7.377486   0.000000
   65        7.379679   0.000000
   66        7.379679   0.000000
   67        7.415828   0.000000
   68        7.481635   0.000000
