       N       E                     dE             d eps       ncg     rms          rms(c)
DAV:   1     0.678552183463E+03    0.67855E+03   -0.24011E+04   552   0.113E+03
DAV:   2    -0.600867883680E+02   -0.73864E+03   -0.71473E+03   544   0.345E+02
DAV:   3    -0.189012699266E+03   -0.12893E+03   -0.12193E+03   896   0.177E+02
DAV:   4    -0.202903502144E+03   -0.13891E+02   -0.12935E+02   872   0.659E+01
DAV:   5    -0.203843837672E+03   -0.94034E+00   -0.89780E+00   888   0.139E+01    0.793E+01
DAV:   6    -0.558967467770E+03   -0.35512E+03   -0.62351E+03  1028   0.561E+02    0.365E+02
DAV:   7    -0.294911033681E+03    0.26406E+03   -0.11843E+03   640   0.248E+02    0.856E+01
DAV:   8    -0.131651224345E+03    0.16326E+03   -0.91465E+02   984   0.133E+02    0.371E+01
DAV:   9    -0.148478869518E+03   -0.16828E+02   -0.28011E+02   976   0.840E+01    0.380E+01
DAV:  10    -0.148610182873E+03   -0.13131E+00   -0.47879E+01   960   0.450E+01    0.266E+01
DAV:  11    -0.151834626285E+03   -0.32244E+01   -0.58538E+01  1040   0.486E+01    0.371E+01
DAV:  12    -0.150469261523E+03    0.13654E+01   -0.99781E+01  1024   0.642E+01    0.221E+01
DAV:  13    -0.147078012834E+03    0.33912E+01   -0.22373E+01  1024   0.326E+01    0.174E+01
DAV:  14    -0.146308340644E+03    0.76967E+00   -0.39061E+00   856   0.172E+01    0.143E+01
DAV:  15    -0.145549699168E+03    0.75864E+00   -0.21556E+00  1024   0.102E+01    0.986E+00
DAV:  16    -0.145508142079E+03    0.41557E-01   -0.30161E-01   880   0.402E+00    0.850E+00
DAV:  17    -0.145428362280E+03    0.79780E-01   -0.72213E-01   896   0.472E+00    0.615E+00
DAV:  18    -0.145398450264E+03    0.29912E-01   -0.15267E-01   960   0.217E+00    0.499E+00
DAV:  19    -0.145389008959E+03    0.94413E-02   -0.36929E-02   928   0.156E+00    0.436E+00
DAV:  20    -0.145385508657E+03    0.35003E-02   -0.11212E-02   888   0.804E-01    0.319E+00
DAV:  21    -0.145377873996E+03    0.76347E-02   -0.13973E-02   984   0.640E-01    0.222E+00
DAV:  22    -0.145376841484E+03    0.10325E-02   -0.19609E-03   688   0.320E-01    0.170E+00
DAV:  23    -0.145375359614E+03    0.14819E-02   -0.34002E-03   952   0.271E-01    0.817E-01
DAV:  24    -0.145374883461E+03    0.47615E-03   -0.13937E-03   968   0.202E-01    0.352E-01
DAV:  25    -0.145374781080E+03    0.10238E-03   -0.38301E-04   952   0.866E-02    0.141E-01
DAV:  26    -0.145374765818E+03    0.15262E-04   -0.10559E-04   760   0.597E-02    0.258E-02
DAV:  27    -0.145374766403E+03   -0.58508E-06   -0.12038E-05   424   0.252E-02
   1 F= -.14537477E+03 E0= -.14531949E+03  d E =-.145375E+03
       N       E                     dE             d eps       ncg     rms          rms(c)
DAV:   1    -0.223945531080E+03   -0.78571E+02   -0.48321E+03   592   0.442E+02    0.135E+02
DAV:   2    -0.878950801721E+03   -0.65501E+03   -0.10402E+04   968   0.513E+02    0.590E+02
DAV:   3    -0.465307968723E+03    0.41364E+03   -0.21376E+03   660   0.274E+02    0.138E+02
DAV:   4    -0.157698421205E+03    0.30761E+03   -0.18909E+03  1088   0.175E+02    0.559E+01
DAV:   5    -0.178343848311E+03   -0.20645E+02   -0.59411E+02  1048   0.121E+02    0.709E+01
DAV:   6    -0.167611359040E+03    0.10732E+02   -0.29173E+02  1016   0.106E+02    0.538E+01
DAV:   7    -0.164982358508E+03    0.26290E+01   -0.29938E+01   960   0.283E+01    0.501E+01
DAV:   8    -0.162825054507E+03    0.21573E+01   -0.11119E+01   984   0.191E+01    0.494E+01
DAV:   9    -0.159864404767E+03    0.29606E+01   -0.54727E+01  1032   0.392E+01    0.451E+01
DAV:  10    -0.158270563963E+03    0.15938E+01   -0.11208E+01  1000   0.171E+01    0.404E+01
DAV:  11    -0.158455810241E+03   -0.18525E+00   -0.74682E+00  1032   0.137E+01    0.393E+01
DAV:  12    -0.157333273165E+03    0.11225E+01   -0.45490E+00  1024   0.101E+01    0.340E+01
DAV:  13    -0.165026852121E+03   -0.76936E+01   -0.26725E+01  1024   0.276E+01    0.498E+01
DAV:  14    -0.159960288443E+03    0.50666E+01   -0.63932E+00  1048   0.159E+01    0.383E+01
DAV:  15    -0.157274912446E+03    0.26854E+01   -0.50610E+00  1048   0.119E+01    0.240E+01
DAV:  16    -0.157097270302E+03    0.17764E+00   -0.58554E-01   912   0.397E+00    0.224E+01
DAV:  17    -0.156633126048E+03    0.46414E+00   -0.12797E+00  1056   0.483E+00    0.171E+01
DAV:  18    -0.156593150549E+03    0.39975E-01   -0.13245E-01   888   0.178E+00    0.158E+01
DAV:  19    -0.156530294357E+03    0.62856E-01   -0.54829E-01  1008   0.344E+00    0.130E+01
DAV:  20    -0.156531930508E+03   -0.16362E-02   -0.49748E-02   872   0.106E+00    0.126E+01
DAV:  21    -0.156537789681E+03   -0.58592E-02   -0.33247E-02   800   0.796E-01    0.117E+01
DAV:  22    -0.156520614638E+03    0.17175E-01   -0.36344E-02   992   0.960E-01    0.102E+01
DAV:  23    -0.156500104284E+03    0.20510E-01   -0.13083E-02   912   0.509E-01    0.873E+00
DAV:  24    -0.156460144822E+03    0.39959E-01   -0.57021E-02  1000   0.895E-01    0.698E+00
DAV:  25    -0.156456791723E+03    0.33531E-02   -0.60172E-03   784   0.346E-01    0.661E+00
DAV:  26    -0.156443889941E+03    0.12902E-01   -0.37265E-02  1048   0.799E-01    0.400E+00
DAV:  27    -0.156442440719E+03    0.14492E-02   -0.78968E-03   960   0.377E-01    0.259E+00
DAV:  28    -0.156440913802E+03    0.15269E-02   -0.17246E-03   904   0.175E-01    0.166E+00
DAV:  29    -0.156440297924E+03    0.61588E-03   -0.89047E-04   936   0.145E-01    0.125E+00
DAV:  30    -0.156439963732E+03    0.33419E-03   -0.81188E-04   992   0.123E-01    0.706E-01
DAV:  31    -0.156439461128E+03    0.50260E-03   -0.84444E-04   936   0.137E-01    0.359E-01
DAV:  32    -0.156439336626E+03    0.12450E-03   -0.26945E-04   968   0.641E-02    0.127E-01
DAV:  33    -0.156439301853E+03    0.34774E-04   -0.78969E-05   712   0.480E-02    0.990E-02
DAV:  34    -0.156439289193E+03    0.12660E-04   -0.17532E-05   480   0.207E-02    0.608E-02
DAV:  35    -0.156439284586E+03    0.46067E-05   -0.44735E-05   640   0.180E-02
   2 F= -.15643928E+03 E0= -.15634270E+03  d E =-.110645E+02
       N       E                     dE             d eps       ncg     rms          rms(c)
DAV:   1    -0.172085669799E+03   -0.15646E+02   -0.55431E+02   624   0.114E+02    0.441E+01
DAV:   2    -0.320624344298E+03   -0.14854E+03   -0.10937E+03  1032   0.285E+02    0.176E+02
DAV:   3    -0.221678965299E+03    0.98945E+02   -0.52923E+02   920   0.109E+02    0.610E+01
DAV:   4    -0.167692517812E+03    0.53986E+02   -0.21520E+02   952   0.778E+01    0.337E+01
DAV:   5    -0.160868152626E+03    0.68244E+01   -0.80965E+01   928   0.558E+01    0.161E+01
DAV:   6    -0.161394667229E+03   -0.52651E+00   -0.20221E+01  1016   0.218E+01    0.189E+01
DAV:   7    -0.161175831361E+03    0.21884E+00   -0.25839E+01  1000   0.254E+01    0.166E+01
DAV:   8    -0.160096366529E+03    0.10795E+01   -0.62568E+00   952   0.165E+01    0.977E+00
DAV:   9    -0.160344894518E+03   -0.24853E+00   -0.80500E+00  1072   0.160E+01    0.117E+01
DAV:  10    -0.159788688376E+03    0.55621E+00   -0.38233E+00  1072   0.137E+01    0.347E+00
DAV:  11    -0.159850249602E+03   -0.61561E-01   -0.60778E-01  1032   0.439E+00    0.474E+00
DAV:  12    -0.159772659754E+03    0.77590E-01   -0.20594E-01  1032   0.341E+00    0.255E+00
DAV:  13    -0.159771617851E+03    0.10419E-02   -0.17151E-01  1056   0.225E+00    0.193E+00
DAV:  14    -0.159764904210E+03    0.67136E-02   -0.37778E-02  1056   0.144E+00    0.868E-01
DAV:  15    -0.159764932820E+03   -0.28610E-04   -0.86111E-03  1056   0.501E-01    0.623E-01
DAV:  16    -0.159764142907E+03    0.78991E-03   -0.18429E-03  1048   0.299E-01    0.362E-01
DAV:  17    -0.159764110218E+03    0.32689E-04   -0.26669E-04   896   0.923E-02    0.211E-01
DAV:  18    -0.159764019428E+03    0.90791E-04   -0.34112E-04  1024   0.106E-01    0.685E-02
DAV:  19    -0.159764021693E+03   -0.22654E-05   -0.23988E-05   504   0.365E-02
   3 F= -.15976402E+03 E0= -.15969187E+03  d E =-.143893E+02
       N       E                     dE             d eps       ncg     rms          rms(c)
DAV:   1    -0.159808009104E+03   -0.43990E-01   -0.13017E+00   676   0.607E+00    0.234E+00
DAV:   2    -0.161363884366E+03   -0.15559E+01   -0.85246E+00  1064   0.201E+01    0.169E+01
DAV:   3    -0.159754764225E+03    0.16091E+01   -0.68646E+00  1072   0.198E+01    0.137E+00
DAV:   4    -0.159786412764E+03   -0.31649E-01   -0.53069E-01   888   0.454E+00    0.107E+00
DAV:   5    -0.159789496116E+03   -0.30834E-02   -0.12644E-01   992   0.182E+00    0.120E+00
DAV:   6    -0.159781044752E+03    0.84514E-02   -0.72823E-02   868   0.154E+00    0.561E-01
DAV:   7    -0.159779992423E+03    0.10523E-02   -0.15292E-02   976   0.796E-01    0.418E-01
DAV:   8    -0.159779151266E+03    0.84116E-03   -0.73670E-03  1072   0.537E-01    0.126E-01
DAV:   9    -0.159779187925E+03   -0.36659E-04   -0.14927E-03   912   0.259E-01    0.866E-02
DAV:  10    -0.159779105737E+03    0.82188E-04   -0.71115E-04   960   0.203E-01    0.345E-02
DAV:  11    -0.159779101233E+03    0.45035E-05   -0.50129E-05   608   0.523E-02
   4 F= -.15977910E+03 E0= -.15970936E+03  d E =-.144043E+02
       N       E                     dE             d eps       ncg     rms          rms(c)
DAV:   1    -0.174915821631E+03   -0.15137E+02   -0.43679E+02   708   0.112E+02    0.360E+01
DAV:   2    -0.263847642150E+03   -0.88932E+02   -0.79500E+02   992   0.239E+02    0.104E+02
DAV:   3    -0.174542690485E+03    0.89305E+02   -0.32214E+02   956   0.100E+02    0.326E+01
DAV:   4    -0.166335726440E+03    0.82070E+01   -0.86684E+01  1072   0.669E+01    0.203E+01
DAV:   5    -0.164747266914E+03    0.15885E+01   -0.51743E+01   904   0.462E+01    0.110E+01
DAV:   6    -0.165513478521E+03   -0.76621E+00   -0.18120E+01  1088   0.254E+01    0.150E+01
DAV:   7    -0.164210939476E+03    0.13025E+01   -0.90216E+00   968   0.201E+01    0.814E+00
DAV:   8    -0.164061700675E+03    0.14924E+00   -0.11552E+00   888   0.762E+00    0.661E+00
DAV:   9    -0.163886483436E+03    0.17522E+00   -0.83706E-01  1056   0.609E+00    0.299E+00
DAV:  10    -0.163898997845E+03   -0.12514E-01   -0.44596E-01   872   0.390E+00    0.242E+00
DAV:  11    -0.163873528055E+03    0.25470E-01   -0.20520E-01   856   0.308E+00    0.149E+00
DAV:  12    -0.163872583487E+03    0.94457E-03   -0.14089E-02   888   0.698E-01    0.111E+00
DAV:  13    -0.163869479610E+03    0.31039E-02   -0.73044E-03  1056   0.541E-01    0.536E-01
DAV:  14    -0.163868874127E+03    0.60548E-03   -0.18618E-03   944   0.259E-01    0.289E-01
DAV:  15    -0.163868668833E+03    0.20529E-03   -0.97694E-04   992   0.166E-01    0.103E-01
DAV:  16    -0.163868635899E+03    0.32933E-04   -0.24349E-04   904   0.850E-02    0.200E-02
DAV:  17    -0.163868639169E+03   -0.32702E-05   -0.28607E-05   504   0.405E-02
   5 F= -.16386864E+03 E0= -.16379214E+03  d E =-.408954E+01
       N       E                     dE             d eps       ncg     rms          rms(c)
DAV:   1    -0.167171640679E+03   -0.33030E+01   -0.11964E+02   728   0.637E+01    0.193E+01
DAV:   2    -0.200512270342E+03   -0.33341E+02   -0.26670E+02  1040   0.136E+02    0.591E+01
DAV:   3    -0.164351953803E+03    0.36160E+02   -0.14005E+02  1008   0.866E+01    0.106E+01
DAV:   4    -0.165644452413E+03   -0.12925E+01   -0.27628E+01  1048   0.330E+01    0.134E+01
DAV:   5    -0.164675859385E+03    0.96859E+00   -0.11906E+01   888   0.230E+01    0.682E+00
DAV:   6    -0.164604196454E+03    0.71663E-01   -0.25035E+00  1048   0.108E+01    0.471E+00
DAV:   7    -0.164465086357E+03    0.13911E+00   -0.18390E+00  1000   0.864E+00    0.313E+00
DAV:   8    -0.164443236709E+03    0.21850E-01   -0.14051E-01   872   0.277E+00    0.258E+00
DAV:   9    -0.164423546549E+03    0.19690E-01   -0.63654E-02  1016   0.203E+00    0.190E+00
DAV:  10    -0.164406726527E+03    0.16820E-01   -0.73735E-02  1064   0.189E+00    0.616E-01
DAV:  11    -0.164405861315E+03    0.86521E-03   -0.19265E-02   864   0.920E-01    0.414E-01
DAV:  12    -0.164405537920E+03    0.32340E-03   -0.26159E-03  1000   0.362E-01    0.191E-01
DAV:  13    -0.164405441834E+03    0.96086E-04   -0.39421E-04   896   0.126E-01    0.111E-01
DAV:  14    -0.164405380659E+03    0.61175E-04   -0.25357E-04  1064   0.999E-02    0.169E-02
DAV:  15    -0.164405381186E+03   -0.52696E-06   -0.13472E-05   432   0.299E-02
   6 F= -.16440538E+03 E0= -.16433235E+03  d E =-.462628E+01
       N       E                     dE             d eps       ncg     rms          rms(c)
DAV:   1    -0.168831331237E+03   -0.44260E+01   -0.37284E+02   584   0.848E+01    0.219E+01
DAV:   2    -0.239927243543E+03   -0.71096E+02   -0.70307E+02  1032   0.205E+02    0.810E+01
DAV:   3    -0.168466441063E+03    0.71461E+02   -0.35526E+02  1064   0.130E+02    0.176E+01
DAV:   4    -0.166847191197E+03    0.16192E+01   -0.42103E+01   904   0.380E+01    0.808E+00
DAV:   5    -0.167094907200E+03   -0.24772E+00   -0.99125E+00   984   0.190E+01    0.938E+00
DAV:   6    -0.166479704991E+03    0.61520E+00   -0.63166E+00   872   0.164E+01    0.483E+00
DAV:   7    -0.166718177430E+03   -0.23847E+00   -0.38656E+00  1040   0.134E+01    0.726E+00
DAV:   8    -0.166284195684E+03    0.43398E+00   -0.27641E+00  1072   0.117E+01    0.221E+00
DAV:   9    -0.166289641955E+03   -0.54463E-02   -0.39148E-01   864   0.421E+00    0.171E+00
DAV:  10    -0.166291105632E+03   -0.14637E-02   -0.33396E-01   872   0.383E+00    0.145E+00
DAV:  11    -0.166274848221E+03    0.16257E-01   -0.20438E-01   912   0.310E+00    0.948E-01
DAV:  12    -0.166269352642E+03    0.54956E-02   -0.25683E-02   888   0.103E+00    0.329E-01
DAV:  13    -0.166268821733E+03    0.53091E-03   -0.47068E-03   896   0.363E-01    0.928E-02
DAV:  14    -0.166268876843E+03   -0.55110E-04   -0.26723E-04   816   0.101E-01    0.773E-02
DAV:  15    -0.166268839283E+03    0.37560E-04   -0.13463E-04   800   0.803E-02    0.236E-02
DAV:  16    -0.166268838052E+03    0.12310E-05   -0.19866E-05   488   0.266E-02
   7 F= -.16626884E+03 E0= -.16619047E+03  d E =-.186346E+01
       N       E                     dE             d eps       ncg     rms          rms(c)
DAV:   1    -0.166464512547E+03   -0.19567E+00   -0.23315E+01   544   0.186E+01    0.442E+00
DAV:   2    -0.169927327804E+03   -0.34628E+01   -0.27763E+01  1056   0.415E+01    0.205E+01
DAV:   3    -0.166314664486E+03    0.36127E+01   -0.18106E+01  1088   0.324E+01    0.251E+00
DAV:   4    -0.166356286076E+03   -0.41622E-01   -0.13451E+00   880   0.753E+00    0.168E+00
DAV:   5    -0.166334108380E+03    0.22178E-01   -0.24853E-01   888   0.321E+00    0.913E-01
DAV:   6    -0.166343558086E+03   -0.94497E-02   -0.21605E-01   944   0.305E+00    0.137E+00
DAV:   7    -0.166326947549E+03    0.16611E-01   -0.11500E-01  1072   0.250E+00    0.459E-01
DAV:   8    -0.166325577157E+03    0.13704E-02   -0.18677E-02   936   0.954E-01    0.213E-01
DAV:   9    -0.166325159985E+03    0.41717E-03   -0.25232E-03   896   0.359E-01    0.655E-02
DAV:  10    -0.166325244545E+03   -0.84560E-04   -0.98730E-04   920   0.204E-01    0.945E-02
DAV:  11    -0.166325154755E+03    0.89790E-04   -0.64471E-04   984   0.180E-01    0.231E-02
DAV:  12    -0.166325154016E+03    0.73845E-06   -0.38605E-05   552   0.445E-02
   8 F= -.16632515E+03 E0= -.16625273E+03  d E =-.191977E+01
       N       E                     dE             d eps       ncg     rms          rms(c)
DAV:   1    -0.167582149431E+03   -0.12570E+01   -0.68326E+01   704   0.424E+01    0.994E+00
DAV:   2    -0.181679381315E+03   -0.14097E+02   -0.11998E+02   976   0.786E+01    0.408E+01
DAV:   3    -0.166636977856E+03    0.15042E+02   -0.60297E+01  1048   0.519E+01    0.355E+00
DAV:   4    -0.167247941581E+03   -0.61096E+00   -0.67161E+00   912   0.151E+01    0.532E+00
DAV:   5    -0.167016677612E+03    0.23126E+00   -0.24693E+00   976   0.106E+01    0.180E+00
DAV:   6    -0.167024993267E+03   -0.83157E-02   -0.45918E-01  1000   0.445E+00    0.194E+00
DAV:   7    -0.166987815132E+03    0.37178E-01   -0.26436E-01   872   0.324E+00    0.645E-01
DAV:   8    -0.166992563719E+03   -0.47486E-02   -0.74872E-02   904   0.159E+00    0.891E-01
DAV:   9    -0.166985418886E+03    0.71448E-02   -0.45124E-02   896   0.133E+00    0.262E-01
DAV:  10    -0.166985244975E+03    0.17391E-03   -0.61385E-03   888   0.516E-01    0.129E-01
DAV:  11    -0.166985310272E+03   -0.65298E-04   -0.25472E-03   880   0.310E-01    0.142E-01
DAV:  12    -0.166985120583E+03    0.18969E-03   -0.11198E-03   856   0.218E-01    0.265E-02
DAV:  13    -0.166985130626E+03   -0.10043E-04   -0.95635E-05   728   0.567E-02    0.123E-02
DAV:  14    -0.166985131384E+03   -0.75842E-06   -0.67442E-06   368   0.215E-02
   9 F= -.16698513E+03 E0= -.16690909E+03  d E =-.659977E+00
       N       E                     dE             d eps       ncg     rms          rms(c)
DAV:   1    -0.167086137752E+03   -0.10101E+00   -0.66978E+00   616   0.127E+01    0.314E+00
DAV:   2    -0.168680763699E+03   -0.15946E+01   -0.11638E+01  1056   0.251E+01    0.151E+01
DAV:   3    -0.167010988223E+03    0.16698E+01   -0.78454E+00  1072   0.199E+01    0.103E+00
DAV:   4    -0.167057368667E+03   -0.46380E-01   -0.54191E-01   888   0.472E+00    0.160E+00
DAV:   5    -0.167034101560E+03    0.23267E-01   -0.20120E-01   880   0.288E+00    0.589E-01
DAV:   6    -0.167033315871E+03    0.78569E-03   -0.26850E-02   952   0.113E+00    0.428E-01
DAV:   7    -0.167031786187E+03    0.15297E-02   -0.12221E-02   896   0.734E-01    0.173E-01
DAV:   8    -0.167032058976E+03   -0.27279E-03   -0.57320E-03   912   0.437E-01    0.241E-01
DAV:   9    -0.167031493471E+03    0.56550E-03   -0.39042E-03   848   0.367E-01    0.607E-02
DAV:  10    -0.167031503555E+03   -0.10084E-04   -0.45667E-04   960   0.147E-01    0.359E-02
DAV:  11    -0.167031498699E+03    0.48563E-05   -0.12700E-04   808   0.759E-02    0.268E-02
DAV:  12    -0.167031493997E+03    0.47011E-05   -0.14872E-05   384   0.358E-02
  10 F= -.16703149E+03 E0= -.16695210E+03  d E =-.706340E+00
       N       E                     dE             d eps       ncg     rms          rms(c)
DAV:   1    -0.167772562178E+03   -0.74106E+00   -0.28760E+01   560   0.247E+01    0.698E+00
DAV:   2    -0.175331556802E+03   -0.75590E+01   -0.52962E+01  1080   0.566E+01    0.327E+01
DAV:   3    -0.167393024243E+03    0.79385E+01   -0.38385E+01  1048   0.454E+01    0.302E+00
DAV:   4    -0.167595381378E+03   -0.20236E+00   -0.36479E+00   904   0.112E+01    0.317E+00
DAV:   5    -0.167531250773E+03    0.64131E-01   -0.83965E-01   904   0.629E+00    0.202E+00
DAV:   6    -0.167531600216E+03   -0.34944E-03   -0.31144E-01  1000   0.354E+00    0.190E+00
DAV:   7    -0.167502536779E+03    0.29063E-01   -0.21566E-01  1072   0.279E+00    0.645E-01
DAV:   8    -0.167504056487E+03   -0.15197E-02   -0.30352E-02   912   0.110E+00    0.703E-01
DAV:   9    -0.167501443492E+03    0.26130E-02   -0.14397E-02   856   0.824E-01    0.460E-01
DAV:  10    -0.167500469614E+03    0.97388E-03   -0.58215E-03  1080   0.500E-01    0.146E-01
DAV:  11    -0.167500421237E+03    0.48376E-04   -0.14025E-03   872   0.235E-01    0.911E-02
DAV:  12    -0.167500414279E+03    0.69586E-05   -0.24671E-04   880   0.103E-01    0.817E-02
DAV:  13    -0.167500375861E+03    0.38418E-04   -0.12434E-04   968   0.872E-02    0.178E-02
DAV:  14    -0.167500372623E+03    0.32376E-05   -0.12156E-05   404   0.250E-02
  11 F= -.16750037E+03 E0= -.16741890E+03  d E =-.468879E+00
       N       E                     dE             d eps       ncg     rms          rms(c)
DAV:   1    -0.168642795654E+03   -0.11424E+01   -0.88362E+01   544   0.424E+01    0.121E+01
DAV:   2    -0.186690511242E+03   -0.18048E+02   -0.12853E+02  1016   0.967E+01    0.468E+01
DAV:   3    -0.167531689233E+03    0.19159E+02   -0.77127E+01   936   0.655E+01    0.687E+00
DAV:   4    -0.168123862098E+03   -0.59217E+00   -0.11617E+01   944   0.184E+01    0.539E+00
DAV:   5    -0.167977489653E+03    0.14637E+00   -0.29493E+00   888   0.108E+01    0.365E+00
DAV:   6    -0.167935857005E+03    0.41633E-01   -0.98702E-01  1088   0.703E+00    0.262E+00
DAV:   7    -0.167902881444E+03    0.32976E-01   -0.45652E-01  1008   0.427E+00    0.210E+00
DAV:   8    -0.167888912120E+03    0.13969E-01   -0.54615E-02   944   0.167E+00    0.135E+00
DAV:   9    -0.167884979829E+03    0.39323E-02   -0.24982E-02   912   0.107E+00    0.108E+00
DAV:  10    -0.167878813129E+03    0.61667E-02   -0.22416E-02  1064   0.100E+00    0.307E-01
DAV:  11    -0.167878942158E+03   -0.12903E-03   -0.32514E-03   880   0.380E-01    0.220E-01
DAV:  12    -0.167878813620E+03    0.12854E-03   -0.97621E-04   856   0.198E-01    0.172E-01
DAV:  13    -0.167878715254E+03    0.98366E-04   -0.29779E-04  1056   0.115E-01    0.816E-02
DAV:  14    -0.167878681480E+03    0.33775E-04   -0.12029E-04   984   0.703E-02    0.193E-02
DAV:  15    -0.167878682493E+03   -0.10132E-05   -0.87288E-06   408   0.242E-02
  12 F= -.16787868E+03 E0= -.16779020E+03  d E =-.847188E+00
       N       E                     dE             d eps       ncg     rms          rms(c)
DAV:   1    -0.168210550831E+03   -0.33187E+00   -0.22378E+01   544   0.155E+01    0.187E+00
DAV:   2    -0.168676972013E+03   -0.46642E+00   -0.40616E+00  1056   0.148E+01    0.734E+00
DAV:   3    -0.168230225201E+03    0.44675E+00   -0.25537E+00  1072   0.118E+01    0.154E+00
DAV:   4    -0.168226026685E+03    0.41985E-02   -0.21057E-01  1040   0.374E+00    0.112E+00
DAV:   5    -0.168210320094E+03    0.15707E-01   -0.82819E-02  1016   0.221E+00    0.484E-01
DAV:   6    -0.168214334304E+03   -0.40142E-02   -0.79596E-02   896   0.168E+00    0.808E-01
DAV:   7    -0.168207595689E+03    0.67386E-02   -0.38956E-02   968   0.134E+00    0.978E-02
DAV:   8    -0.168207778368E+03   -0.18268E-03   -0.29880E-03   904   0.353E-01    0.119E-01
DAV:   9    -0.168207667888E+03    0.11048E-03   -0.95510E-04   888   0.219E-01    0.549E-02
DAV:  10    -0.168207661613E+03    0.62752E-05   -0.24301E-04   888   0.993E-02    0.458E-02
DAV:  11    -0.168207639826E+03    0.21787E-04   -0.12561E-04   824   0.714E-02    0.913E-03
DAV:  12    -0.168207639963E+03   -0.13713E-06   -0.63485E-06   368   0.199E-02
  13 F= -.16820764E+03 E0= -.16812404E+03  d E =-.328957E+00
       N       E                     dE             d eps       ncg     rms          rms(c)
DAV:   1    -0.168833727841E+03   -0.62609E+00   -0.20670E+02   544   0.506E+01    0.588E+00
DAV:   2    -0.172652801984E+03   -0.38191E+01   -0.39217E+01   928   0.451E+01    0.186E+01
DAV:   3    -0.168940729155E+03    0.37121E+01   -0.22808E+01  1000   0.325E+01    0.394E+00
DAV:   4    -0.169006990925E+03   -0.66262E-01   -0.22776E+00  1056   0.116E+01    0.413E+00
DAV:   5    -0.168863982831E+03    0.14301E+00   -0.80303E-01  1056   0.751E+00    0.218E+00
DAV:   6    -0.168857910181E+03    0.60727E-02   -0.71854E-01   968   0.568E+00    0.199E+00
DAV:   7    -0.168819511199E+03    0.38399E-01   -0.21091E-01   856   0.324E+00    0.661E-01
DAV:   8    -0.168816786306E+03    0.27249E-02   -0.47028E-02   872   0.138E+00    0.330E-01
DAV:   9    -0.168815865462E+03    0.92084E-03   -0.71934E-03   952   0.602E-01    0.111E-01
DAV:  10    -0.168816077803E+03   -0.21234E-03   -0.30404E-03   872   0.356E-01    0.165E-01
DAV:  11    -0.168815806736E+03    0.27107E-03   -0.17740E-03   872   0.263E-01    0.375E-02
DAV:  12    -0.168815803931E+03    0.28045E-05   -0.15534E-04   824   0.835E-02    0.131E-02
DAV:  13    -0.168815802681E+03    0.12507E-05   -0.76838E-06   416   0.244E-02
  14 F= -.16881580E+03 E0= -.16874309E+03  d E =-.937120E+00
       N       E                     dE             d eps       ncg     rms          rms(c)
DAV:   1    -0.168899625391E+03   -0.83821E-01   -0.41738E+01   552   0.213E+01    0.253E+00
DAV:   2    -0.169555422641E+03   -0.65580E+00   -0.65613E+00  1032   0.188E+01    0.867E+00
DAV:   3    -0.168927457471E+03    0.62797E+00   -0.41140E+00  1080   0.150E+01    0.204E+00
DAV:   4    -0.168920503798E+03    0.69537E-02   -0.35606E-01  1024   0.523E+00    0.155E+00
DAV:   5    -0.168891521361E+03    0.28982E-01   -0.16570E-01  1024   0.316E+00    0.707E-01
DAV:   6    -0.168895821413E+03   -0.43001E-02   -0.13460E-01   856   0.231E+00    0.917E-01
DAV:   7    -0.168885417035E+03    0.10404E-01   -0.56368E-02   912   0.170E+00    0.176E-01
DAV:   8    -0.168885593043E+03   -0.17601E-03   -0.60401E-03   872   0.476E-01    0.146E-01
DAV:   9    -0.168885396725E+03    0.19632E-03   -0.17070E-03   896   0.280E-01    0.571E-02
DAV:  10    -0.168885392645E+03    0.40798E-05   -0.39691E-04   920   0.144E-01    0.469E-02
DAV:  11    -0.168885371459E+03    0.21186E-04   -0.20624E-04   888   0.943E-02    0.168E-02
DAV:  12    -0.168885368661E+03    0.27978E-05   -0.95535E-06   416   0.280E-02
  15 F= -.16888537E+03 E0= -.16882177E+03  d E =-.100669E+01
       N       E                     dE             d eps       ncg     rms          rms(c)
DAV:   1    -0.169281444341E+03   -0.39607E+00   -0.58504E+01   544   0.252E+01    0.325E+00
DAV:   2    -0.170512326164E+03   -0.12309E+01   -0.12424E+01   952   0.256E+01    0.106E+01
DAV:   3    -0.169303126062E+03    0.12092E+01   -0.67602E+00  1016   0.186E+01    0.248E+00
DAV:   4    -0.169285466365E+03    0.17660E-01   -0.52498E-01  1000   0.609E+00    0.160E+00
DAV:   5    -0.169284418542E+03    0.10478E-02   -0.28445E-01  1072   0.412E+00    0.186E+00
DAV:   6    -0.169252641769E+03    0.31777E-01   -0.26638E-01  1072   0.362E+00    0.546E-01
DAV:   7    -0.169250052982E+03    0.25888E-02   -0.22456E-02   864   0.109E+00    0.271E-01
DAV:   8    -0.169249409414E+03    0.64357E-03   -0.85531E-03   856   0.628E-01    0.150E-01
DAV:   9    -0.169249316081E+03    0.93333E-04   -0.22507E-03  1056   0.335E-01    0.103E-01
DAV:  10    -0.169249252870E+03    0.63211E-04   -0.66237E-04   872   0.180E-01    0.643E-02
DAV:  11    -0.169249225572E+03    0.27298E-04   -0.13544E-04  1000   0.815E-02    0.180E-02
DAV:  12    -0.169249222133E+03    0.34391E-05   -0.19019E-05   424   0.342E-02
  16 F= -.16924922E+03 E0= -.16918875E+03  d E =-.363853E+00
       N       E                     dE             d eps       ncg     rms          rms(c)
DAV:   1    -0.169528056535E+03   -0.27883E+00   -0.83762E+01   544   0.306E+01    0.401E+00
DAV:   2    -0.171296175843E+03   -0.17681E+01   -0.19049E+01   928   0.316E+01    0.125E+01
DAV:   3    -0.169522704032E+03    0.17735E+01   -0.96369E+00   952   0.223E+01    0.305E+00
DAV:   4    -0.169512480710E+03    0.10223E-01   -0.89661E-01   944   0.776E+00    0.214E+00
DAV:   5    -0.169520835589E+03   -0.83549E-02   -0.50005E-01  1080   0.547E+00    0.250E+00
DAV:   6    -0.169460296536E+03    0.60539E-01   -0.40963E-01  1072   0.461E+00    0.545E-01
DAV:   7    -0.169457266176E+03    0.30304E-02   -0.24843E-02   864   0.109E+00    0.240E-01
DAV:   8    -0.169457156241E+03    0.10994E-03   -0.86071E-03   864   0.622E-01    0.216E-01
DAV:   9    -0.169456784012E+03    0.37223E-03   -0.44809E-03   992   0.446E-01    0.112E-01
DAV:  10    -0.169456740202E+03    0.43811E-04   -0.95065E-04   872   0.214E-01    0.851E-02
DAV:  11    -0.169456680530E+03    0.59672E-04   -0.28074E-04   928   0.118E-01    0.242E-02
DAV:  12    -0.169456676219E+03    0.43108E-05   -0.33399E-05   552   0.408E-02
  17 F= -.16945668E+03 E0= -.16939672E+03  d E =-.571308E+00
       N       E                     dE             d eps       ncg     rms          rms(c)
DAV:   1    -0.169713189663E+03   -0.25651E+00   -0.18308E+01   544   0.145E+01    0.231E+00
DAV:   2    -0.170251474872E+03   -0.53829E+00   -0.56176E+00   912   0.158E+01    0.797E+00
DAV:   3    -0.169723641231E+03    0.52783E+00   -0.34388E+00  1064   0.137E+01    0.269E+00
DAV:   4    -0.169689139062E+03    0.34502E-01   -0.40388E-01  1056   0.540E+00    0.117E+00
DAV:   5    -0.169691011982E+03   -0.18729E-02   -0.23659E-01   948   0.319E+00    0.136E+00
DAV:   6    -0.169670632208E+03    0.20380E-01   -0.14133E-01   872   0.248E+00    0.303E-01
DAV:   7    -0.169671534777E+03   -0.90257E-03   -0.22354E-02   920   0.106E+00    0.332E-01
DAV:   8    -0.169670277244E+03    0.12575E-02   -0.84438E-03   904   0.683E-01    0.766E-02
DAV:   9    -0.169670247329E+03    0.29915E-04   -0.74997E-04   880   0.185E-01    0.350E-02
DAV:  10    -0.169670238298E+03    0.90308E-05   -0.80540E-05   808   0.643E-02
  18 F= -.16967024E+03 E0= -.16960988E+03  d E =-.213562E+00
       N       E                     dE             d eps       ncg     rms          rms(c)
DAV:   1    -0.169721200949E+03   -0.50954E-01   -0.68285E+00   544   0.882E+00    0.139E+00
DAV:   2    -0.169898960220E+03   -0.17776E+00   -0.19213E+00   888   0.922E+00    0.445E+00
DAV:   3    -0.169720365355E+03    0.17859E+00   -0.11920E+00   992   0.783E+00    0.153E+00
DAV:   4    -0.169712452795E+03    0.79126E-02   -0.14193E-01  1048   0.320E+00    0.813E-01
DAV:   5    -0.169711416970E+03    0.10358E-02   -0.86989E-02  1008   0.196E+00    0.799E-01
DAV:   6    -0.169704518910E+03    0.68981E-02   -0.55308E-02   856   0.150E+00    0.208E-01
DAV:   7    -0.169704742126E+03   -0.22322E-03   -0.80902E-03   912   0.647E-01    0.193E-01
DAV:   8    -0.169704294602E+03    0.44752E-03   -0.29994E-03   872   0.413E-01    0.500E-02
DAV:   9    -0.169704302412E+03   -0.78096E-05   -0.45702E-04   872   0.137E-01    0.435E-02
DAV:  10    -0.169704284086E+03    0.18325E-04   -0.14724E-04   848   0.864E-02    0.182E-02
DAV:  11    -0.169704281107E+03    0.29793E-05   -0.35299E-05   648   0.443E-02
  19 F= -.16970428E+03 E0= -.16964402E+03  d E =-.247605E+00
       N       E                     dE             d eps       ncg     rms          rms(c)
DAV:   1    -0.169746313124E+03   -0.42029E-01   -0.27048E+00   576   0.761E+00    0.195E+00
DAV:   2    -0.170493407125E+03   -0.74709E+00   -0.46499E+00  1064   0.165E+01    0.111E+01
DAV:   3    -0.169724700197E+03    0.76871E+00   -0.32195E+00  1080   0.132E+01    0.683E-01
DAV:   4    -0.169736722674E+03   -0.12022E-01   -0.19644E-01   808   0.289E+00    0.787E-01
DAV:   5    -0.169730735754E+03    0.59869E-02   -0.46464E-02   896   0.159E+00    0.322E-01
DAV:   6    -0.169730776819E+03   -0.41065E-04   -0.10056E-02   928   0.670E-01    0.256E-01
DAV:   7    -0.169730031266E+03    0.74555E-03   -0.50820E-03   872   0.484E-01    0.741E-02
DAV:   8    -0.169730016497E+03    0.14769E-04   -0.63639E-04   864   0.153E-01    0.556E-02
DAV:   9    -0.169729999451E+03    0.17046E-04   -0.33857E-04   856   0.131E-01    0.353E-02
DAV:  10    -0.169729990891E+03    0.85603E-05   -0.97002E-05   776   0.620E-02
  20 F= -.16972999E+03 E0= -.16966849E+03  d E =-.257098E-01
       N       E                     dE             d eps       ncg     rms          rms(c)
DAV:   1    -0.169738286713E+03   -0.82873E-02   -0.76788E-01   576   0.401E+00    0.104E+00
DAV:   2    -0.169956821780E+03   -0.21854E+00   -0.12702E+00  1080   0.880E+00    0.615E+00
DAV:   3    -0.169732617129E+03    0.22420E+00   -0.90726E-01  1080   0.730E+00    0.386E-01
DAV:   4    -0.169735803125E+03   -0.31860E-02   -0.61008E-02   840   0.159E+00    0.441E-01
DAV:   5    -0.169733835834E+03    0.19673E-02   -0.13230E-02   896   0.849E-01    0.191E-01
DAV:   6    -0.169733902688E+03   -0.66854E-04   -0.38029E-03   904   0.402E-01    0.170E-01
DAV:   7    -0.169733606410E+03    0.29628E-03   -0.19082E-03   880   0.288E-01    0.405E-02
DAV:   8    -0.169733616188E+03   -0.97779E-05   -0.28470E-04   872   0.109E-01    0.406E-02
DAV:   9    -0.169733600876E+03    0.15312E-04   -0.15197E-04   828   0.818E-02    0.184E-02
DAV:  10    -0.169733598883E+03    0.19935E-05   -0.24247E-05   496   0.398E-02
  21 F= -.16973360E+03 E0= -.16967135E+03  d E =-.293178E-01
       N       E                     dE             d eps       ncg     rms          rms(c)
DAV:   1    -0.169754621601E+03   -0.21021E-01   -0.91673E-01   576   0.436E+00    0.115E+00
DAV:   2    -0.170017704869E+03   -0.26308E+00   -0.16273E+00  1072   0.969E+00    0.671E+00
DAV:   3    -0.169746934760E+03    0.27077E+00   -0.13146E+00  1088   0.861E+00    0.420E-01
DAV:   4    -0.169751183215E+03   -0.42485E-02   -0.89171E-02   848   0.191E+00    0.527E-01
DAV:   5    -0.169748715067E+03    0.24681E-02   -0.16252E-02   880   0.995E-01    0.271E-01
DAV:   6    -0.169748619508E+03    0.95559E-04   -0.49640E-03   920   0.449E-01    0.212E-01
DAV:   7    -0.169748236126E+03    0.38338E-03   -0.22063E-03  1008   0.325E-01    0.451E-02
DAV:   8    -0.169748257723E+03   -0.21597E-04   -0.56106E-04   872   0.140E-01    0.643E-02
DAV:   9    -0.169748219077E+03    0.38646E-04   -0.30551E-04   856   0.109E-01    0.197E-02
DAV:  10    -0.169748214649E+03    0.44280E-05   -0.26292E-05   496   0.401E-02
  22 F= -.16974821E+03 E0= -.16968510E+03  d E =-.146158E-01
       N       E                     dE             d eps       ncg     rms          rms(c)
DAV:   1    -0.169773554827E+03   -0.25336E-01   -0.21821E+00   576   0.671E+00    0.177E+00
DAV:   2    -0.170383386357E+03   -0.60983E+00   -0.38427E+00  1072   0.149E+01    0.100E+01
DAV:   3    -0.169753669950E+03    0.62972E+00   -0.29785E+00  1088   0.134E+01    0.648E-01
DAV:   4    -0.169765528683E+03   -0.11859E-01   -0.22367E-01   872   0.299E+00    0.825E-01
DAV:   5    -0.169759785986E+03    0.57427E-02   -0.39970E-02   880   0.153E+00    0.454E-01
DAV:   6    -0.169759381178E+03    0.40481E-03   -0.11998E-02   904   0.707E-01    0.331E-01
DAV:   7    -0.169758462672E+03    0.91851E-03   -0.53770E-03  1048   0.519E-01    0.696E-02
DAV:   8    -0.169758528950E+03   -0.66278E-04   -0.15548E-03   888   0.232E-01    0.108E-01
DAV:   9    -0.169758417266E+03    0.11168E-03   -0.79165E-04   872   0.174E-01    0.319E-02
DAV:  10    -0.169758410007E+03    0.72593E-05   -0.95863E-05   776   0.680E-02
  23 F= -.16975841E+03 E0= -.16969378E+03  d E =-.248111E-01
       N       E                     dE             d eps       ncg     rms          rms(c)
DAV:   1    -0.169759039281E+03   -0.62201E-03   -0.60080E-02   604   0.113E+00    0.293E-01
DAV:   2    -0.169776373730E+03   -0.17334E-01   -0.96119E-02  1072   0.244E+00    0.175E+00
DAV:   3    -0.169758579375E+03    0.17794E-01   -0.76676E-02  1088   0.215E+00    0.110E-01
DAV:   4    -0.169758814558E+03   -0.23518E-03   -0.55286E-03   848   0.484E-01    0.134E-01
DAV:   5    -0.169758644796E+03    0.16976E-03   -0.10261E-03   872   0.254E-01    0.604E-02
DAV:   6    -0.169758643671E+03    0.11255E-05   -0.29681E-04   896   0.111E-01    0.498E-02
DAV:   7    -0.169758622311E+03    0.21360E-04   -0.11469E-04   800   0.757E-02    0.124E-02
DAV:   8    -0.169758622540E+03   -0.22824E-06   -0.19333E-05   456   0.333E-02
  24 F= -.16975862E+03 E0= -.16969371E+03  d E =-.250237E-01
       N       E                     dE             d eps       ncg     rms          rms(c)
DAV:   1    -0.169760112173E+03   -0.14899E-02   -0.50457E-02   556   0.787E-01    0.154E-01
DAV:   2    -0.169764303068E+03   -0.41909E-02   -0.29508E-02  1072   0.144E+00    0.782E-01
DAV:   3    -0.169760212542E+03    0.40905E-02   -0.20857E-02  1080   0.118E+00    0.199E-01
DAV:   4    -0.169759982527E+03    0.23002E-03   -0.19827E-03   864   0.324E-01    0.552E-02
DAV:   5    -0.169759993178E+03   -0.10651E-04   -0.52216E-04   880   0.154E-01    0.616E-02
DAV:   6    -0.169759950921E+03    0.42257E-04   -0.30617E-04   864   0.117E-01    0.248E-02
DAV:   7    -0.169759947760E+03    0.31612E-05   -0.25274E-05   464   0.446E-02
  25 F= -.16975995E+03 E0= -.16969480E+03  d E =-.132522E-02
       N       E                     dE             d eps       ncg     rms          rms(c)
DAV:   1    -0.169762800506E+03   -0.28496E-02   -0.39066E-01   544   0.221E+00    0.426E-01
DAV:   2    -0.169794737878E+03   -0.31937E-01   -0.22440E-01  1072   0.396E+00    0.217E+00
DAV:   3    -0.169763531007E+03    0.31207E-01   -0.15688E-01  1080   0.323E+00    0.538E-01
DAV:   4    -0.169761903240E+03    0.16278E-02   -0.15138E-02   872   0.887E-01    0.153E-01
DAV:   5    -0.169761974137E+03   -0.70897E-04   -0.38715E-03   880   0.423E-01    0.167E-01
DAV:   6    -0.169761675257E+03    0.29888E-03   -0.23462E-03   864   0.327E-01    0.743E-02
DAV:   7    -0.169761651690E+03    0.23568E-04   -0.28660E-04   864   0.123E-01    0.384E-02
DAV:   8    -0.169761645755E+03    0.59349E-05   -0.19843E-04   888   0.978E-02    0.254E-02
DAV:   9    -0.169761636823E+03    0.89322E-05   -0.31268E-05   472   0.510E-02
  26 F= -.16976164E+03 E0= -.16969587E+03  d E =-.301428E-02
       N       E                     dE             d eps       ncg     rms          rms(c)
DAV:   1    -0.169762321756E+03   -0.67600E-03   -0.34764E-02   552   0.607E-01    0.510E-02
DAV:   2    -0.169762651500E+03   -0.32974E-03   -0.27386E-03  1080   0.341E-01    0.204E-01
DAV:   3    -0.169762381128E+03    0.27037E-03   -0.13820E-03  1080   0.299E-01    0.396E-02
DAV:   4    -0.169762385001E+03   -0.38729E-05   -0.25427E-04   944   0.115E-01    0.461E-02
DAV:   5    -0.169762359176E+03    0.25825E-04   -0.15185E-04   848   0.863E-02    0.993E-03
DAV:   6    -0.169762358376E+03    0.79993E-06   -0.99766E-06   332   0.263E-02
  27 F= -.16976236E+03 E0= -.16969662E+03  d E =-.721553E-03
       N       E                     dE             d eps       ncg     rms          rms(c)
DAV:   1    -0.169763934895E+03   -0.15757E-02   -0.31308E-01   552   0.182E+00    0.155E-01
DAV:   2    -0.169767043264E+03   -0.31084E-02   -0.25376E-02  1080   0.105E+00    0.641E-01
DAV:   3    -0.169764441794E+03    0.26015E-02   -0.13060E-02  1080   0.920E-01    0.116E-01
DAV:   4    -0.169764479146E+03   -0.37352E-04   -0.22815E-03   968   0.345E-01    0.133E-01
DAV:   5    -0.169764246190E+03    0.23296E-03   -0.14720E-03   888   0.266E-01    0.377E-02
DAV:   6    -0.169764247642E+03   -0.14513E-05   -0.24153E-04   864   0.978E-02    0.358E-02
DAV:   7    -0.169764233952E+03    0.13690E-04   -0.95772E-05   872   0.721E-02    0.117E-02
DAV:   8    -0.169764233083E+03    0.86911E-06   -0.12781E-05   352   0.331E-02
  28 F= -.16976423E+03 E0= -.16969856E+03  d E =-.259626E-02
       N       E                     dE             d eps       ncg     rms          rms(c)
DAV:   1    -0.169765537620E+03   -0.13037E-02   -0.12525E+00   548   0.362E+00    0.309E-01
DAV:   2    -0.169777952216E+03   -0.12415E-01   -0.10381E-01  1080   0.212E+00    0.128E+00
DAV:   3    -0.169767525631E+03    0.10427E-01   -0.53637E-02  1080   0.184E+00    0.225E-01
DAV:   4    -0.169767707958E+03   -0.18233E-03   -0.92050E-03   968   0.693E-01    0.268E-01
DAV:   5    -0.169766789407E+03    0.91855E-03   -0.62697E-03   888   0.546E-01    0.866E-02
DAV:   6    -0.169766787819E+03    0.15877E-05   -0.12485E-03   864   0.218E-01    0.761E-02
DAV:   7    -0.169766723929E+03    0.63890E-04   -0.42107E-04   864   0.150E-01    0.221E-02
DAV:   8    -0.169766726273E+03   -0.23448E-05   -0.90965E-05   808   0.639E-02
  29 F= -.16976673E+03 E0= -.16970117E+03  d E =-.508945E-02
       N       E                     dE             d eps       ncg     rms          rms(c)
DAV:   1    -0.169761973442E+03    0.47505E-02   -0.50031E+00   544   0.722E+00    0.615E-01
DAV:   2    -0.169809422664E+03   -0.47449E-01   -0.39795E-01  1080   0.420E+00    0.249E+00
DAV:   3    -0.169769726697E+03    0.39696E-01   -0.19893E-01  1080   0.358E+00    0.414E-01
DAV:   4    -0.169770987136E+03   -0.12604E-02   -0.36152E-02   992   0.139E+00    0.565E-01
DAV:   5    -0.169767163572E+03    0.38236E-02   -0.28247E-02   936   0.117E+00    0.206E-01
DAV:   6    -0.169767048458E+03    0.11511E-03   -0.57377E-03   856   0.467E-01    0.147E-01
DAV:   7    -0.169766805021E+03    0.24344E-03   -0.15262E-03   872   0.289E-01    0.397E-02
DAV:   8    -0.169766819415E+03   -0.14394E-04   -0.33262E-04   888   0.121E-01    0.496E-02
DAV:   9    -0.169766797681E+03    0.21734E-04   -0.17429E-04   872   0.104E-01    0.213E-02
DAV:  10    -0.169766794197E+03    0.34846E-05   -0.17666E-05   448   0.366E-02
  30 F= -.16976679E+03 E0= -.16970143E+03  d E =-.515737E-02
       N       E                     dE             d eps       ncg     rms          rms(c)
DAV:   1    -0.169766349232E+03    0.44845E-03   -0.11909E+00   544   0.357E+00    0.293E-01
DAV:   2    -0.169776379641E+03   -0.10030E-01   -0.88958E-02  1072   0.192E+00    0.109E+00
DAV:   3    -0.169768379177E+03    0.80005E-02   -0.43148E-02  1080   0.166E+00    0.228E-01
DAV:   4    -0.169768507704E+03   -0.12853E-03   -0.80685E-03  1016   0.662E-01    0.266E-01
DAV:   5    -0.169767602137E+03    0.90557E-03   -0.51737E-03   928   0.495E-01    0.756E-02
DAV:   6    -0.169767634201E+03   -0.32063E-04   -0.12599E-03   904   0.236E-01    0.845E-02
DAV:   7    -0.169767555393E+03    0.78807E-04   -0.48704E-04   904   0.166E-01    0.212E-02
DAV:   8    -0.169767564350E+03   -0.89571E-05   -0.13916E-04   872   0.741E-02    0.317E-02
DAV:   9    -0.169767553416E+03    0.10934E-04   -0.72955E-05   776   0.570E-02    0.827E-03
DAV:  10    -0.169767553434E+03   -0.17503E-07   -0.70888E-06   308   0.232E-02
  31 F= -.16976755E+03 E0= -.16970212E+03  d E =-.591661E-02
       N       E                     dE             d eps       ncg     rms          rms(c)
DAV:   1    -0.169768097201E+03   -0.54378E-03   -0.22153E-02   544   0.564E-01    0.134E-01
DAV:   2    -0.169772090096E+03   -0.39929E-02   -0.23507E-02  1088   0.124E+00    0.830E-01
DAV:   3    -0.169768040869E+03    0.40492E-02   -0.17074E-02  1080   0.102E+00    0.724E-02
DAV:   4    -0.169768048937E+03   -0.80682E-05   -0.10470E-03   832   0.215E-01    0.345E-02
DAV:   5    -0.169768041337E+03    0.76004E-05   -0.15807E-04   824   0.909E-02    0.285E-02
DAV:   6    -0.169768037021E+03    0.43161E-05   -0.12088E-04   800   0.672E-02    0.242E-02
DAV:   7    -0.169768030890E+03    0.61310E-05   -0.22875E-05   476   0.423E-02
  32 F= -.16976803E+03 E0= -.16970265E+03  d E =-.477456E-03
       N       E                     dE             d eps       ncg     rms          rms(c)
DAV:   1    -0.169769730142E+03   -0.16931E-02   -0.19947E-01   544   0.170E+00    0.396E-01
DAV:   2    -0.169804447318E+03   -0.34717E-01   -0.21623E-01  1088   0.365E+00    0.244E+00
DAV:   3    -0.169769282047E+03    0.35165E-01   -0.15617E-01  1080   0.299E+00    0.214E-01
DAV:   4    -0.169769350002E+03   -0.67955E-04   -0.89927E-03   832   0.629E-01    0.104E-01
DAV:   5    -0.169769291504E+03    0.58499E-04   -0.14069E-03   872   0.272E-01    0.852E-02
DAV:   6    -0.169769254632E+03    0.36872E-04   -0.11361E-03   864   0.202E-01    0.735E-02
DAV:   7    -0.169769212389E+03    0.42242E-04   -0.35285E-04   896   0.127E-01    0.293E-02
DAV:   8    -0.169769205229E+03    0.71603E-05   -0.11868E-04   856   0.790E-02    0.166E-02
DAV:   9    -0.169769202747E+03    0.24826E-05   -0.79602E-06   376   0.280E-02
  33 F= -.16976920E+03 E0= -.16970401E+03  d E =-.164931E-02
       N       E                     dE             d eps       ncg     rms          rms(c)
DAV:   1    -0.169772427364E+03   -0.32221E-02   -0.79951E-01   544   0.340E+00    0.790E-01
DAV:   2    -0.169909811299E+03   -0.13738E+00   -0.86300E-01  1080   0.728E+00    0.485E+00
DAV:   3    -0.169770615750E+03    0.13920E+00   -0.60849E-01  1080   0.587E+00    0.415E-01
DAV:   4    -0.169770968621E+03   -0.35287E-03   -0.34719E-02   824   0.124E+00    0.207E-01
DAV:   5    -0.169770723401E+03    0.24522E-03   -0.54089E-03   888   0.539E-01    0.162E-01
DAV:   6    -0.169770612011E+03    0.11139E-03   -0.44054E-03   864   0.394E-01    0.146E-01
DAV:   7    -0.169770435375E+03    0.17664E-03   -0.13969E-03   896   0.250E-01    0.552E-02
DAV:   8    -0.169770412379E+03    0.22997E-04   -0.45142E-04   864   0.154E-01    0.332E-02
DAV:   9    -0.169770402502E+03    0.98767E-05   -0.50496E-05   680   0.569E-02
  34 F= -.16977040E+03 E0= -.16970552E+03  d E =-.284907E-02
       N       E                     dE             d eps       ncg     rms          rms(c)
DAV:   1    -0.169771606678E+03   -0.11943E-02   -0.97492E-02   544   0.105E+00    0.119E-01
DAV:   2    -0.169773309173E+03   -0.17025E-02   -0.14700E-02   960   0.889E-01    0.421E-01
DAV:   3    -0.169771780276E+03    0.15289E-02   -0.90589E-03  1080   0.756E-01    0.139E-01
DAV:   4    -0.169771693940E+03    0.86336E-04   -0.10592E-03  1072   0.270E-01    0.629E-02
DAV:   5    -0.169771656063E+03    0.37877E-04   -0.47246E-04   992   0.162E-01    0.526E-02
DAV:   6    -0.169771640004E+03    0.16059E-04   -0.33578E-04   864   0.111E-01    0.317E-02
DAV:   7    -0.169771629345E+03    0.10659E-04   -0.63456E-05   704   0.569E-02    0.994E-03
DAV:   8    -0.169771628865E+03    0.48038E-06   -0.14601E-05   368   0.342E-02
  35 F= -.16977163E+03 E0= -.16970695E+03  d E =-.122636E-02
       N       E                     dE             d eps       ncg     rms          rms(c)
DAV:   1    -0.169774927902E+03   -0.32986E-02   -0.87823E-01   544   0.315E+00    0.358E-01
DAV:   2    -0.169790239845E+03   -0.15312E-01   -0.13369E-01   952   0.269E+00    0.125E+00
DAV:   3    -0.169776296169E+03    0.13944E-01   -0.83708E-02  1072   0.229E+00    0.404E-01
DAV:   4    -0.169775621858E+03    0.67431E-03   -0.93942E-03  1064   0.809E-01    0.196E-01
DAV:   5    -0.169775202614E+03    0.41924E-03   -0.41995E-03  1024   0.490E-01    0.146E-01
DAV:   6    -0.169775108733E+03    0.93881E-04   -0.29728E-03   864   0.329E-01    0.103E-01
DAV:   7    -0.169774998953E+03    0.10978E-03   -0.70288E-04   856   0.181E-01    0.273E-02
DAV:   8    -0.169775004478E+03   -0.55252E-05   -0.19998E-04   856   0.994E-02    0.325E-02
DAV:   9    -0.169774991462E+03    0.13017E-04   -0.74904E-05   736   0.690E-02    0.105E-02
DAV:  10    -0.169774990996E+03    0.46555E-06   -0.94269E-06   320   0.252E-02
  36 F= -.16977499E+03 E0= -.16971081E+03  d E =-.458849E-02
       N       E                     dE             d eps       ncg     rms          rms(c)
DAV:   1    -0.169780030490E+03   -0.50390E-02   -0.35112E+00   544   0.626E+00    0.717E-01
DAV:   2    -0.169843391919E+03   -0.63361E-01   -0.56108E-01   976   0.543E+00    0.255E+00
DAV:   3    -0.169785012985E+03    0.58379E-01   -0.36954E-01  1080   0.463E+00    0.767E-01
DAV:   4    -0.169782824874E+03    0.21881E-02   -0.36987E-02  1064   0.160E+00    0.400E-01
DAV:   5    -0.169780830717E+03    0.19942E-02   -0.15937E-02  1040   0.974E-01    0.248E-01
DAV:   6    -0.169780803428E+03    0.27289E-04   -0.10804E-02   872   0.629E-01    0.228E-01
DAV:   7    -0.169780248002E+03    0.55543E-03   -0.34146E-03   856   0.387E-01    0.497E-02
DAV:   8    -0.169780290603E+03   -0.42601E-04   -0.83390E-04   856   0.197E-01    0.714E-02
DAV:   9    -0.169780233657E+03    0.56946E-04   -0.37420E-04   896   0.146E-01    0.237E-02
DAV:  10    -0.169780232062E+03    0.15954E-05   -0.46955E-05   600   0.466E-02
  37 F= -.16978023E+03 E0= -.16971659E+03  d E =-.982956E-02
       N       E                     dE             d eps       ncg     rms          rms(c)
DAV:   1    -0.169783261252E+03   -0.30276E-02   -0.14090E+01   544   0.124E+01    0.147E+00
DAV:   2    -0.170066246934E+03   -0.28299E+00   -0.24320E+00  1024   0.112E+01    0.546E+00
DAV:   3    -0.169798833353E+03    0.26741E+00   -0.17144E+00  1072   0.970E+00    0.139E+00
DAV:   4    -0.169794048135E+03    0.47852E-02   -0.14899E-01  1024   0.321E+00    0.827E-01
DAV:   5    -0.169784254214E+03    0.97939E-02   -0.60762E-02  1040   0.199E+00    0.348E-01
DAV:   6    -0.169785564888E+03   -0.13107E-02   -0.28569E-02   880   0.106E+00    0.466E-01
DAV:   7    -0.169783169167E+03    0.23957E-02   -0.15044E-02   856   0.786E-01    0.904E-02
DAV:   8    -0.169783380027E+03   -0.21086E-03   -0.31480E-03   864   0.362E-01    0.150E-01
DAV:   9    -0.169783154037E+03    0.22599E-03   -0.14936E-03   896   0.273E-01    0.487E-02
DAV:  10    -0.169783148653E+03    0.53838E-05   -0.19751E-04   864   0.873E-02    0.355E-02
DAV:  11    -0.169783137192E+03    0.11460E-04   -0.72569E-05   740   0.633E-02    0.125E-02
DAV:  12    -0.169783135920E+03    0.12725E-05   -0.11341E-05   364   0.257E-02
  38 F= -.16978314E+03 E0= -.16971809E+03  d E =-.127334E-01
       N       E                     dE             d eps       ncg     rms          rms(c)
DAV:   1    -0.169783560173E+03   -0.42298E-03   -0.13673E+00   544   0.397E+00    0.484E-01
DAV:   2    -0.169818178716E+03   -0.34619E-01   -0.27651E-01  1040   0.386E+00    0.200E+00
DAV:   3    -0.169785698750E+03    0.32480E-01   -0.17870E-01  1088   0.330E+00    0.509E-01
DAV:   4    -0.169784443280E+03    0.12555E-02   -0.16776E-02  1040   0.105E+00    0.218E-01
DAV:   5    -0.169783807753E+03    0.63553E-03   -0.57389E-03   928   0.596E-01    0.163E-01
DAV:   6    -0.169783745320E+03    0.62433E-04   -0.40497E-03   880   0.392E-01    0.134E-01
DAV:   7    -0.169783553570E+03    0.19175E-03   -0.12519E-03   856   0.237E-01    0.315E-02
DAV:   8    -0.169783571922E+03   -0.18352E-04   -0.33272E-04   872   0.121E-01    0.480E-02
DAV:   9    -0.169783547072E+03    0.24850E-04   -0.15575E-04   904   0.912E-02    0.128E-02
DAV:  10    -0.169783546131E+03    0.94069E-06   -0.97167E-06   384   0.260E-02
  39 F= -.16978355E+03 E0= -.16971928E+03  d E =-.131436E-01
       N       E                     dE             d eps       ncg     rms          rms(c)
DAV:   1    -0.169785285066E+03   -0.17380E-02   -0.69959E-01   544   0.275E+00    0.326E-01
DAV:   2    -0.169799906208E+03   -0.14621E-01   -0.13002E-01  1072   0.280E+00    0.132E+00
DAV:   3    -0.169786410570E+03    0.13496E-01   -0.82921E-02  1080   0.224E+00    0.340E-01
DAV:   4    -0.169785945709E+03    0.46486E-03   -0.68989E-03   944   0.680E-01    0.158E-01
DAV:   5    -0.169785697666E+03    0.24804E-03   -0.20175E-03   880   0.323E-01    0.102E-01
DAV:   6    -0.169785747947E+03   -0.50281E-04   -0.27211E-03   872   0.314E-01    0.125E-01
DAV:   7    -0.169785563858E+03    0.18409E-03   -0.10635E-03   868   0.215E-01    0.249E-02
DAV:   8    -0.169785571629E+03   -0.77711E-05   -0.17300E-04   880   0.832E-02    0.306E-02
DAV:   9    -0.169785563586E+03    0.80431E-05   -0.55600E-05   672   0.539E-02
  40 F= -.16978556E+03 E0= -.16972021E+03  d E =-.201746E-02
       N       E                     dE             d eps       ncg     rms          rms(c)
DAV:   1    -0.169786004653E+03   -0.43302E-03   -0.63164E+00   544   0.832E+00    0.977E-01
DAV:   2    -0.169918034049E+03   -0.13203E+00   -0.11877E+00  1064   0.838E+00    0.393E+00
DAV:   3    -0.169795723061E+03    0.12231E+00   -0.76361E-01  1072   0.668E+00    0.967E-01
DAV:   4    -0.169792835309E+03    0.28878E-02   -0.61690E-02   944   0.202E+00    0.501E-01
DAV:   5    -0.169790358842E+03    0.24765E-02   -0.18965E-02   880   0.995E-01    0.308E-01
DAV:   6    -0.169790848564E+03   -0.48972E-03   -0.24091E-02   872   0.957E-01    0.381E-01
DAV:   7    -0.169789123757E+03    0.17248E-02   -0.98994E-03   884   0.657E-01    0.685E-02
DAV:   8    -0.169789124141E+03   -0.38419E-06   -0.86604E-04   904   0.185E-01    0.333E-02
DAV:   9    -0.169789122571E+03    0.15707E-05   -0.12849E-04   832   0.862E-02    0.287E-02
DAV:  10    -0.169789113118E+03    0.94523E-05   -0.34499E-05   496   0.486E-02
  41 F= -.16978911E+03 E0= -.16972022E+03  d E =-.556699E-02
       N       E                     dE             d eps       ncg     rms          rms(c)
DAV:   1    -0.169788850642E+03    0.27193E-03   -0.10200E+00   544   0.331E+00    0.383E-01
DAV:   2    -0.169808367719E+03   -0.19517E-01   -0.18079E-01  1048   0.323E+00    0.145E+00
DAV:   3    -0.169790181029E+03    0.18187E-01   -0.11412E-01  1064   0.258E+00    0.347E-01
DAV:   4    -0.169789912480E+03    0.26855E-03   -0.83630E-03   960   0.756E-01    0.209E-01
DAV:   5    -0.169789485462E+03    0.42702E-03   -0.30794E-03   880   0.407E-01    0.124E-01
DAV:   6    -0.169789537375E+03   -0.51913E-04   -0.37704E-03   880   0.380E-01    0.144E-01
DAV:   7    -0.169789288994E+03    0.24838E-03   -0.14065E-03   900   0.249E-01    0.256E-02
DAV:   8    -0.169789296359E+03   -0.73658E-05   -0.16475E-04   888   0.819E-02    0.274E-02
DAV:   9    -0.169789288620E+03    0.77391E-05   -0.34008E-05   496   0.508E-02
  42 F= -.16978929E+03 E0= -.16971914E+03  d E =-.574249E-02
       N       E                     dE             d eps       ncg     rms          rms(c)
DAV:   1    -0.169791439746E+03   -0.21434E-02   -0.18335E+00   544   0.430E+00    0.388E-01
DAV:   2    -0.169812907949E+03   -0.21468E-01   -0.18092E-01  1032   0.304E+00    0.143E+00
DAV:   3    -0.169794852839E+03    0.18055E-01   -0.10925E-01  1080   0.260E+00    0.402E-01
DAV:   4    -0.169794195834E+03    0.65701E-03   -0.11391E-02  1072   0.860E-01    0.241E-01
DAV:   5    -0.169793413575E+03    0.78226E-03   -0.55536E-03  1000   0.560E-01    0.139E-01
DAV:   6    -0.169793276021E+03    0.13755E-03   -0.27429E-03   872   0.355E-01    0.861E-02
DAV:   7    -0.169793198684E+03    0.77337E-04   -0.54496E-04   872   0.176E-01    0.347E-02
DAV:   8    -0.169793194617E+03    0.40666E-05   -0.16619E-04   856   0.778E-02    0.237E-02
DAV:   9    -0.169793188599E+03    0.60182E-05   -0.37116E-05   584   0.454E-02
  43 F= -.16979319E+03 E0= -.16972132E+03  d E =-.389998E-02
       N       E                     dE             d eps       ncg     rms          rms(c)
DAV:   1    -0.169782420313E+03    0.10774E-01   -0.12754E+01   544   0.114E+01    0.102E+00
DAV:   2    -0.169913703229E+03   -0.13128E+00   -0.11488E+00   992   0.746E+00    0.346E+00
DAV:   3    -0.169805487108E+03    0.10822E+00   -0.72260E-01  1064   0.651E+00    0.975E-01
DAV:   4    -0.169803299757E+03    0.21874E-02   -0.81489E-02  1072   0.227E+00    0.745E-01
DAV:   5    -0.169796606631E+03    0.66931E-02   -0.42176E-02  1064   0.158E+00    0.367E-01
DAV:   6    -0.169796085373E+03    0.52126E-03   -0.22686E-02   896   0.103E+00    0.291E-01
DAV:   7    -0.169795171904E+03    0.91347E-03   -0.62935E-03   896   0.579E-01    0.106E-01
DAV:   8    -0.169795096477E+03    0.75428E-04   -0.13543E-03   864   0.224E-01    0.567E-02
DAV:   9    -0.169795077293E+03    0.19183E-04   -0.20011E-04   856   0.105E-01    0.203E-02
DAV:  10    -0.169795079627E+03   -0.23340E-05   -0.95028E-05   808   0.668E-02
  44 F= -.16979508E+03 E0= -.16972258E+03  d E =-.579101E-02
       N       E                     dE             d eps       ncg     rms          rms(c)
DAV:   1    -0.169793533983E+03    0.15433E-02   -0.25679E+00   544   0.512E+00    0.482E-01
DAV:   2    -0.169830449016E+03   -0.36915E-01   -0.29289E-01  1048   0.399E+00    0.191E+00
DAV:   3    -0.169798603582E+03    0.31845E-01   -0.16809E-01  1080   0.328E+00    0.480E-01
DAV:   4    -0.169797543957E+03    0.10596E-02   -0.16457E-02  1064   0.104E+00    0.274E-01
DAV:   5    -0.169796407393E+03    0.11366E-02   -0.59066E-03   952   0.610E-01    0.142E-01
DAV:   6    -0.169796523938E+03   -0.11655E-03   -0.53492E-03   872   0.477E-01    0.172E-01
DAV:   7    -0.169796175443E+03    0.34850E-03   -0.21881E-03   888   0.330E-01    0.419E-02
DAV:   8    -0.169796183128E+03   -0.76847E-05   -0.31153E-04   880   0.105E-01    0.391E-02
DAV:   9    -0.169796169023E+03    0.14104E-04   -0.11731E-04   848   0.734E-02    0.155E-02
DAV:  10    -0.169796167813E+03    0.12104E-05   -0.12343E-05   376   0.324E-02
  45 F= -.16979617E+03 E0= -.16972334E+03  d E =-.687919E-02
       N       E                     dE             d eps       ncg     rms          rms(c)
DAV:   1    -0.169800778411E+03   -0.46094E-02   -0.13211E-01   544   0.124E+00    0.224E-01
DAV:   2    -0.169807459773E+03   -0.66814E-02   -0.65202E-02   896   0.164E+00    0.764E-01
DAV:   3    -0.169800214999E+03    0.72448E-02   -0.41434E-02   948   0.129E+00    0.142E-01
DAV:   4    -0.169800419638E+03   -0.20464E-03   -0.38911E-03   952   0.441E-01    0.169E-01
DAV:   5    -0.169800336100E+03    0.83538E-04   -0.18894E-03  1048   0.348E-01    0.134E-01
DAV:   6    -0.169800191726E+03    0.14437E-03   -0.15309E-03   880   0.242E-01    0.426E-02
DAV:   7    -0.169800190319E+03    0.14072E-05   -0.25461E-04   848   0.106E-01    0.332E-02
DAV:   8    -0.169800175695E+03    0.14623E-04   -0.76057E-05   744   0.710E-02    0.883E-03
DAV:   9    -0.169800175645E+03    0.49788E-07   -0.11612E-05   352   0.216E-02
  46 F= -.16980018E+03 E0= -.16972705E+03  d E =-.400783E-02
       N       E                     dE             d eps       ncg     rms          rms(c)
DAV:   1    -0.169811119062E+03   -0.10943E-01   -0.11890E+00   544   0.372E+00    0.672E-01
DAV:   2    -0.169869360512E+03   -0.58241E-01   -0.58424E-01   896   0.495E+00    0.223E+00
DAV:   3    -0.169806047035E+03    0.63313E-01   -0.34898E-01   948   0.381E+00    0.430E-01
DAV:   4    -0.169807590711E+03   -0.15437E-02   -0.34568E-02   896   0.130E+00    0.469E-01
DAV:   5    -0.169807512341E+03    0.78370E-04   -0.18346E-02  1040   0.111E+00    0.476E-01
DAV:   6    -0.169805715829E+03    0.17965E-02   -0.14587E-02   904   0.788E-01    0.110E-01
DAV:   7    -0.169805793121E+03   -0.77291E-04   -0.25723E-03   872   0.340E-01    0.117E-01
DAV:   8    -0.169805621456E+03    0.17167E-03   -0.95817E-04   912   0.241E-01    0.273E-02
DAV:   9    -0.169805619982E+03    0.14734E-05   -0.98781E-05   816   0.648E-02
  47 F= -.16980562E+03 E0= -.16973200E+03  d E =-.945217E-02
       N       E                     dE             d eps       ncg     rms          rms(c)
DAV:   1    -0.169810141895E+03   -0.45204E-02   -0.15731E-01   620   0.259E+00    0.797E-01
DAV:   2    -0.169932547080E+03   -0.12241E+00   -0.72999E-01  1064   0.674E+00    0.445E+00
DAV:   3    -0.169805438071E+03    0.12711E+00   -0.57450E-01  1080   0.576E+00    0.269E-01
DAV:   4    -0.169807690595E+03   -0.22525E-02   -0.38442E-02   824   0.122E+00    0.387E-01
DAV:   5    -0.169806372640E+03    0.13180E-02   -0.81240E-03   872   0.665E-01    0.146E-01
DAV:   6    -0.169806386164E+03   -0.13524E-04   -0.20160E-03   872   0.286E-01    0.113E-01
DAV:   7    -0.169806256959E+03    0.12920E-03   -0.71011E-04   976   0.196E-01    0.293E-02
DAV:   8    -0.169806262341E+03   -0.53815E-05   -0.18757E-04   880   0.827E-02    0.374E-02
DAV:   9    -0.169806249934E+03    0.12407E-04   -0.88286E-05   784   0.605E-02    0.142E-02
DAV:  10    -0.169806248520E+03    0.14148E-05   -0.90187E-06   380   0.284E-02
  48 F= -.16980625E+03 E0= -.16973259E+03  d E =-.628537E-03
       N       E                     dE             d eps       ncg     rms          rms(c)
DAV:   1    -0.169806614024E+03   -0.36409E-03   -0.11885E-02   628   0.711E-01    0.221E-01
DAV:   2    -0.169816106431E+03   -0.94924E-02   -0.54546E-02  1072   0.188E+00    0.124E+00
DAV:   3    -0.169806273398E+03    0.98330E-02   -0.43838E-02  1080   0.164E+00    0.790E-02
DAV:   4    -0.169806441715E+03   -0.16832E-03   -0.31862E-03   856   0.345E-01    0.110E-01
DAV:   5    -0.169806342113E+03    0.99602E-04   -0.56530E-04   848   0.178E-01    0.460E-02
DAV:   6    -0.169806341949E+03    0.16440E-06   -0.15207E-04   880   0.786E-02    0.311E-02
DAV:   7    -0.169806331048E+03    0.10901E-04   -0.40743E-05   544   0.543E-02    0.988E-03
DAV:   8    -0.169806332467E+03   -0.14189E-05   -0.24968E-05   376   0.218E-02
  49 F= -.16980633E+03 E0= -.16973269E+03  d E =-.712485E-03
       N       E                     dE             d eps       ncg     rms          rms(c)
DAV:   1    -0.169806908957E+03   -0.57791E-03   -0.42492E-02   544   0.775E-01    0.126E-01
DAV:   2    -0.169808825992E+03   -0.19170E-02   -0.13905E-02  1064   0.909E-01    0.544E-01
DAV:   3    -0.169806935151E+03    0.18908E-02   -0.94445E-03  1088   0.766E-01    0.822E-02
DAV:   4    -0.169806931423E+03    0.37272E-05   -0.10720E-03   896   0.237E-01    0.553E-02
DAV:   5    -0.169806903282E+03    0.28141E-04   -0.31559E-04   864   0.129E-01    0.366E-02
DAV:   6    -0.169806892612E+03    0.10670E-04   -0.15863E-04   904   0.854E-02    0.264E-02
DAV:   7    -0.169806886550E+03    0.60621E-05   -0.18726E-05   400   0.475E-02
  50 F= -.16980689E+03 E0= -.16973342E+03  d E =-.554083E-03
       N       E                     dE             d eps       ncg     rms          rms(c)
DAV:   1    -0.169807178982E+03   -0.28637E-03   -0.81160E-02   544   0.107E+00    0.172E-01
DAV:   2    -0.169810690048E+03   -0.35111E-02   -0.25278E-02  1064   0.122E+00    0.740E-01
DAV:   3    -0.169807218847E+03    0.34712E-02   -0.17112E-02  1080   0.103E+00    0.108E-01
DAV:   4    -0.169807227667E+03   -0.88196E-05   -0.20273E-03   904   0.321E-01    0.797E-02
DAV:   5    -0.169807167100E+03    0.60566E-04   -0.62728E-04   888   0.181E-01    0.519E-02
DAV:   6    -0.169807146516E+03    0.20585E-04   -0.31647E-04   912   0.119E-01    0.375E-02
DAV:   7    -0.169807137026E+03    0.94899E-05   -0.69570E-05   736   0.674E-02
  51 F= -.16980714E+03 E0= -.16973391E+03  d E =-.804559E-03
       N       E                     dE             d eps       ncg     rms          rms(c)
DAV:   1    -0.169807422374E+03   -0.27586E-03   -0.46126E-02   544   0.759E-01    0.125E-01
DAV:   2    -0.169810088540E+03   -0.26662E-02   -0.17940E-02  1080   0.109E+00    0.642E-01
DAV:   3    -0.169807466175E+03    0.26224E-02   -0.11983E-02  1072   0.870E-01    0.819E-02
DAV:   4    -0.169807456281E+03    0.98937E-05   -0.94684E-04   840   0.207E-01    0.412E-02
DAV:   5    -0.169807438503E+03    0.17779E-04   -0.14625E-04   792   0.922E-02    0.251E-02
DAV:   6    -0.169807440243E+03   -0.17398E-05   -0.14698E-04   840   0.757E-02    0.314E-02
DAV:   7    -0.169807429914E+03    0.10328E-04   -0.59123E-05   676   0.513E-02    0.752E-03
DAV:   8    -0.169807429815E+03    0.98948E-07   -0.99144E-06   332   0.270E-02
  52 F= -.16980743E+03 E0= -.16973429E+03  d E =-.292789E-03
       N       E                     dE             d eps       ncg     rms          rms(c)
DAV:   1    -0.169807557759E+03   -0.12784E-03   -0.85584E-02   544   0.103E+00    0.165E-01
DAV:   2    -0.169812235084E+03   -0.46773E-02   -0.31587E-02  1080   0.144E+00    0.846E-01
DAV:   3    -0.169807654382E+03    0.45807E-02   -0.20789E-02  1072   0.115E+00    0.107E-01
DAV:   4    -0.169807641707E+03    0.12675E-04   -0.16516E-03   840   0.273E-01    0.548E-02
DAV:   5    -0.169807611044E+03    0.30663E-04   -0.26394E-04   880   0.124E-01    0.329E-02
DAV:   6    -0.169807614054E+03   -0.30108E-05   -0.24964E-04   864   0.989E-02    0.414E-02
DAV:   7    -0.169807597498E+03    0.16557E-04   -0.11207E-04   832   0.660E-02    0.916E-03
DAV:   8    -0.169807597020E+03    0.47762E-06   -0.12513E-05   388   0.329E-02
  53 F= -.16980760E+03 E0= -.16973465E+03  d E =-.459994E-03
       N       E                     dE             d eps       ncg     rms          rms(c)
DAV:   1    -0.169808040036E+03   -0.44254E-03   -0.42102E-02   576   0.921E-01    0.228E-01
DAV:   2    -0.169818368508E+03   -0.10328E-01   -0.60734E-02  1080   0.201E+00    0.128E+00
DAV:   3    -0.169807795253E+03    0.10573E-01   -0.46400E-02  1080   0.170E+00    0.820E-02
DAV:   4    -0.169807984161E+03   -0.18891E-03   -0.34973E-03   872   0.355E-01    0.121E-01
DAV:   5    -0.169807861084E+03    0.12308E-03   -0.68615E-04   872   0.194E-01    0.516E-02
DAV:   6    -0.169807857474E+03    0.36106E-05   -0.17685E-04   912   0.870E-02    0.332E-02
DAV:   7    -0.169807846571E+03    0.10903E-04   -0.68349E-05   672   0.572E-02    0.882E-03
DAV:   8    -0.169807847028E+03   -0.45703E-06   -0.14383E-05   356   0.263E-02
  54 F= -.16980785E+03 E0= -.16973507E+03  d E =-.250008E-03
       N       E                     dE             d eps       ncg     rms          rms(c)
DAV:   1    -0.169807882056E+03   -0.35485E-04   -0.47887E-03   576   0.311E-01    0.761E-02
DAV:   2    -0.169809003072E+03   -0.11210E-02   -0.66499E-03  1072   0.662E-01    0.422E-01
DAV:   3    -0.169807858237E+03    0.11448E-02   -0.50006E-03  1080   0.558E-01    0.289E-02
DAV:   4    -0.169807877183E+03   -0.18947E-04   -0.38413E-04   848   0.119E-01    0.376E-02
DAV:   5    -0.169807864868E+03    0.12315E-04   -0.70889E-05   688   0.643E-02    0.164E-02
DAV:   6    -0.169807864373E+03    0.49501E-06   -0.15008E-05   396   0.341E-02
  55 F= -.16980786E+03 E0= -.16973509E+03  d E =-.267353E-03
       N       E                     dE             d eps       ncg     rms          rms(c)
DAV:   1    -0.169807885243E+03   -0.20375E-04   -0.19147E-02   576   0.623E-01    0.155E-01
DAV:   2    -0.169812659399E+03   -0.47742E-02   -0.28132E-02  1080   0.136E+00    0.871E-01
DAV:   3    -0.169807771093E+03    0.48883E-02   -0.21333E-02  1080   0.115E+00    0.546E-02
DAV:   4    -0.169807862415E+03   -0.91322E-04   -0.16120E-03   872   0.241E-01    0.834E-02
DAV:   5    -0.169807803455E+03    0.58960E-04   -0.32864E-04   880   0.133E-01    0.354E-02
DAV:   6    -0.169807799282E+03    0.41725E-05   -0.59675E-05   672   0.559E-02
  56 F= -.16980780E+03 E0= -.16973512E+03  d E =-.202262E-03
       N       E                     dE             d eps       ncg     rms          rms(c)
DAV:   1    -0.169807928195E+03   -0.12474E-03   -0.13136E-02   584   0.515E-01    0.123E-01
DAV:   2    -0.169810905836E+03   -0.29776E-02   -0.17584E-02  1064   0.109E+00    0.688E-01
DAV:   3    -0.169807853638E+03    0.30522E-02   -0.13378E-02  1080   0.912E-01    0.436E-02
DAV:   4    -0.169807904020E+03   -0.50383E-04   -0.98080E-04   840   0.189E-01    0.630E-02
DAV:   5    -0.169807867156E+03    0.36864E-04   -0.20695E-04   840   0.107E-01    0.251E-02
DAV:   6    -0.169807865800E+03    0.13569E-05   -0.50191E-05   632   0.494E-02
  57 F= -.16980787E+03 E0= -.16973519E+03  d E =-.268779E-03
       N       E                     dE             d eps       ncg     rms          rms(c)
DAV:   1    -0.169807868604E+03   -0.14474E-05   -0.32356E-04   724   0.855E-02    0.222E-02
DAV:   2    -0.169807966086E+03   -0.97482E-04   -0.59762E-04  1080   0.182E-01    0.126E-01
DAV:   3    -0.169807864004E+03    0.10208E-03   -0.44548E-04  1080   0.165E-01    0.858E-03
DAV:   4    -0.169807864487E+03   -0.48230E-06   -0.24156E-05   472   0.375E-02
  58 F= -.16980786E+03 E0= -.16973515E+03  d E =-.267467E-03
       N       E                     dE             d eps       ncg     rms          rms(c)
DAV:   1    -0.169808050699E+03   -0.18669E-03   -0.45736E-02   544   0.723E-01    0.102E-01
DAV:   2    -0.169809591568E+03   -0.15409E-02   -0.11458E-02  1072   0.849E-01    0.474E-01
DAV:   3    -0.169808122983E+03    0.14686E-02   -0.73862E-03  1080   0.685E-01    0.841E-02
DAV:   4    -0.169808093735E+03    0.29248E-04   -0.65445E-04   880   0.194E-01    0.379E-02
DAV:   5    -0.169808082906E+03    0.10829E-04   -0.18008E-04   848   0.891E-02    0.328E-02
DAV:   6    -0.169808073248E+03    0.96579E-05   -0.14594E-04   856   0.847E-02    0.203E-02
DAV:   7    -0.169808068110E+03    0.51376E-05   -0.18979E-05   456   0.416E-02
  59 F= -.16980807E+03 E0= -.16973540E+03  d E =-.203624E-03
       N       E                     dE             d eps       ncg     rms          rms(c)
DAV:   1    -0.169808109426E+03   -0.36179E-04   -0.65157E-02   544   0.865E-01    0.118E-01
DAV:   2    -0.169810095356E+03   -0.19859E-02   -0.15000E-02  1072   0.969E-01    0.535E-01
DAV:   3    -0.169808213976E+03    0.18814E-02   -0.94767E-03  1080   0.777E-01    0.981E-02
DAV:   4    -0.169808176028E+03    0.37948E-04   -0.87052E-04   872   0.224E-01    0.466E-02
DAV:   5    -0.169808157586E+03    0.18442E-04   -0.26171E-04   864   0.108E-01    0.386E-02
DAV:   6    -0.169808145692E+03    0.11895E-04   -0.22007E-04   872   0.103E-01    0.264E-02
DAV:   7    -0.169808137233E+03    0.84584E-05   -0.35875E-05   512   0.525E-02
  60 F= -.16980814E+03 E0= -.16973558E+03  d E =-.272747E-03
       N       E                     dE             d eps       ncg     rms          rms(c)
DAV:   1    -0.169808329776E+03   -0.18408E-03   -0.24159E-02   544   0.513E-01    0.627E-02
DAV:   2    -0.169808892197E+03   -0.56242E-03   -0.42461E-03  1080   0.521E-01    0.283E-01
DAV:   3    -0.169808360974E+03    0.53122E-03   -0.25507E-03  1080   0.409E-01    0.470E-02
DAV:   4    -0.169808357660E+03    0.33139E-05   -0.26809E-04   872   0.114E-01    0.320E-02
DAV:   5    -0.169808342466E+03    0.15194E-04   -0.85301E-05   696   0.699E-02    0.179E-02
DAV:   6    -0.169808343452E+03   -0.98566E-06   -0.86227E-05   752   0.605E-02
  61 F= -.16980834E+03 E0= -.16973588E+03  d E =-.206218E-03
       N       E                     dE             d eps       ncg     rms          rms(c)
DAV:   1    -0.169808425799E+03   -0.83333E-04   -0.62102E-02   544   0.824E-01    0.999E-02
DAV:   2    -0.169809868669E+03   -0.14429E-02   -0.10825E-02  1072   0.834E-01    0.455E-01
DAV:   3    -0.169808507338E+03    0.13613E-02   -0.65965E-03  1080   0.657E-01    0.751E-02
DAV:   4    -0.169808498810E+03    0.85278E-05   -0.68608E-04   880   0.184E-01    0.511E-02
DAV:   5    -0.169808461444E+03    0.37365E-04   -0.22308E-04   864   0.108E-01    0.272E-02
DAV:   6    -0.169808467300E+03   -0.58553E-05   -0.24316E-04   864   0.957E-02    0.394E-02
DAV:   7    -0.169808450517E+03    0.16783E-04   -0.95581E-05   760   0.679E-02    0.714E-03
DAV:   8    -0.169808450424E+03    0.92547E-07   -0.88696E-06   344   0.246E-02
  62 F= -.16980845E+03 E0= -.16973603E+03  d E =-.313191E-03
       N       E                     dE             d eps       ncg     rms          rms(c)
DAV:   1    -0.169809146320E+03   -0.69580E-03   -0.44481E-02   676   0.119E+00    0.334E-01
DAV:   2    -0.169828511150E+03   -0.19365E-01   -0.11300E-01  1064   0.266E+00    0.178E+00
DAV:   3    -0.169808372893E+03    0.20138E-01   -0.90868E-02  1080   0.238E+00    0.127E-01
DAV:   4    -0.169808724793E+03   -0.35190E-03   -0.76113E-03   864   0.549E-01    0.165E-01
DAV:   5    -0.169808480851E+03    0.24394E-03   -0.13313E-03   848   0.273E-01    0.719E-02
DAV:   6    -0.169808471408E+03    0.94430E-05   -0.28561E-04   896   0.111E-01    0.488E-02
DAV:   7    -0.169808452530E+03    0.18878E-04   -0.10083E-04   816   0.743E-02    0.126E-02
DAV:   8    -0.169808452777E+03   -0.24703E-06   -0.18690E-05   440   0.330E-02
  63 F= -.16980845E+03 E0= -.16973614E+03  d E =-.235282E-05
       N       E                     dE             d eps       ncg     rms          rms(c)
DAV:   1    -0.169808707585E+03   -0.25506E-03   -0.11447E-02   684   0.602E-01    0.168E-01
DAV:   2    -0.169813688008E+03   -0.49804E-02   -0.29096E-02  1056   0.134E+00    0.903E-01
DAV:   3    -0.169808492123E+03    0.51959E-02   -0.23319E-02  1080   0.120E+00    0.597E-02
DAV:   4    -0.169808593055E+03   -0.10093E-03   -0.19061E-03   872   0.274E-01    0.887E-02
DAV:   5    -0.169808516875E+03    0.76179E-04   -0.36505E-04   856   0.143E-01    0.349E-02
DAV:   6    -0.169808514238E+03    0.26379E-05   -0.68905E-05   704   0.555E-02
  64 F= -.16980851E+03 E0= -.16973621E+03  d E =-.638133E-04
