 vasp.5.4.4.18Apr17-6-g9f103f2a35 (build Jul 11 2019 11:52:51) complex          
  
 executed on             LinuxIFC date 2023.11.29  16:52:09
 running on    4 total cores
 distrk:  each k-point on    4 cores,    1 groups
 distr:  one band on NCORES_PER_BAND=   1 cores,    4 groups


--------------------------------------------------------------------------------------------------------


 INCAR:
 POTCAR:    PAW_PBE V 08Apr2002                   
 POTCAR:    PAW_PBE Fe 06Sep2000                  
 POTCAR:    PAW_PBE V 08Apr2002                   
   VRHFIN =V: p6 d4 s1                                                          
   LEXCH  = PE                                                                  
   EATOM  =   170.8679 eV,   12.5584 Ry                                         
                                                                                
   TITEL  = PAW_PBE V 08Apr2002                                                 
   LULTRA =        F    use ultrasoft PP ?                                      
   IUNSCR =        1    unscreen: 0-lin 1-nonlin 2-no                           
   RPACOR =    2.000    partial core radius                                     
   POMASS =   50.941; ZVAL   =    5.000    mass and valenz                      
   RCORE  =    2.700    outmost cutoff radius                                   
   RWIGS  =    2.500; RWIGS  =    1.323    wigner-seitz radius (au A)           
   ENMAX  =  192.543; ENMIN  =  144.408 eV                                      
   RCLOC  =    1.779    cutoff for local pot                                    
   LCOR   =        T    correct aug charges                                     
   LPAW   =        T    paw PP                                                  
   EAUG   =  358.662                                                            
   DEXC   =    0.000                                                            
   RMAX   =    2.768    core radius for proj-oper                               
   RAUG   =    1.300    factor for augmentation sphere                          
   RDEP   =    2.762    radius for radial grids                                 
   RDEPT  =    2.240    core radius for aug-charge                              
                                                                                
   Atomic configuration                                                         
    9 entries                                                                   
     n  l   j            E        occ.                                          
     1  0  0.50     -5360.7193   2.0000                                         
     2  0  0.50      -598.4546   2.0000                                         
     2  1  1.50      -499.0155   6.0000                                         
     3  0  0.50       -66.5711   2.0000                                         
     3  1  1.50       -40.5282   6.0000                                         
     3  2  2.50        -2.4291   4.0000                                         
     4  0  0.50        -3.8743   1.0000                                         
     4  1  0.50        -2.7212   0.0000                                         
     4  3  2.50        -1.3606   0.0000                                         
   Description                                                                  
     l       E           TYP  RCUT    TYP  RCUT                                 
     2     -2.4290901     23  2.700                                             
     2     -3.7896727     23  2.700                                             
     0     -3.8742752     23  2.700                                             
     0     27.2116520     23  2.700                                             
     1     -2.7211652     23  2.700                                             
     1     27.2116520     23  2.700                                             
  local pseudopotential read in
  partial core-charges read in
  partial kinetic energy density read in
  atomic valenz-charges read in
  non local Contribution for L=           2  read in
    real space projection operators read in
  non local Contribution for L=           2  read in
    real space projection operators read in
  non local Contribution for L=           0  read in
    real space projection operators read in
  non local Contribution for L=           0  read in
    real space projection operators read in
  non local Contribution for L=           1  read in
    real space projection operators read in
  non local Contribution for L=           1  read in
    real space projection operators read in
    PAW grid and wavefunctions read in
 
   number of l-projection  operators is LMAX  =           6
   number of lm-projection operators is LMMAX =          18
 
 POTCAR:    PAW_PBE Fe 06Sep2000                  
   VRHFIN =Fe:  d7 s1                                                           
   LEXCH  = PE                                                                  
   EATOM  =   594.3153 eV,   43.6809 Ry                                         
                                                                                
   TITEL  = PAW_PBE Fe 06Sep2000                                                
   LULTRA =        F    use ultrasoft PP ?                                      
   IUNSCR =        1    unscreen: 0-lin 1-nonlin 2-no                           
   RPACOR =    2.000    partial core radius                                     
   POMASS =   55.847; ZVAL   =    8.000    mass and valenz                      
   RCORE  =    2.300    outmost cutoff radius                                   
   RWIGS  =    2.460; RWIGS  =    1.302    wigner-seitz radius (au A)           
   ENMAX  =  267.882; ENMIN  =  200.911 eV                                      
   RCLOC  =    1.701    cutoff for local pot                                    
   LCOR   =        T    correct aug charges                                     
   LPAW   =        T    paw PP                                                  
   EAUG   =  511.368                                                            
   DEXC   =    0.000                                                            
   RMAX   =    2.356    core radius for proj-oper                               
   RAUG   =    1.300    factor for augmentation sphere                          
   RDEP   =    2.442    radius for radial grids                                 
   RDEPT  =    1.890    core radius for aug-charge                              
                                                                                
   Atomic configuration                                                         
    9 entries                                                                   
     n  l   j            E        occ.                                          
     1  0  0.50     -6993.8440   2.0000                                         
     2  0  0.50      -814.6047   2.0000                                         
     2  1  1.50      -693.3689   6.0000                                         
     3  0  0.50       -89.4732   2.0000                                         
     3  1  1.50       -55.6373   6.0000                                         
     3  2  2.50        -3.8151   7.0000                                         
     4  0  0.50        -4.2551   1.0000                                         
     4  1  1.50        -3.4015   0.0000                                         
     4  3  2.50        -1.3606   0.0000                                         
   Description                                                                  
     l       E           TYP  RCUT    TYP  RCUT                                 
     2     -3.8151135     23  2.300                                             
     2     -5.1756961     23  2.300                                             
     0     -4.2550963     23  2.300                                             
     0      7.2035603     23  2.300                                             
     1     -2.7211652     23  2.300                                             
     1     18.4316424     23  2.300                                             
  local pseudopotential read in
  partial core-charges read in
  partial kinetic energy density read in
  atomic valenz-charges read in
  non local Contribution for L=           2  read in
    real space projection operators read in
  non local Contribution for L=           2  read in
    real space projection operators read in
  non local Contribution for L=           0  read in
    real space projection operators read in
  non local Contribution for L=           0  read in
    real space projection operators read in
  non local Contribution for L=           1  read in
    real space projection operators read in
  non local Contribution for L=           1  read in
    real space projection operators read in
    PAW grid and wavefunctions read in
 
   number of l-projection  operators is LMAX  =           6
   number of lm-projection operators is LMMAX =          18
 

 ----------------------------------------------------------------------------- 
|                                                                             |
|  ADVICE TO THIS USER RUNNING 'VASP/VAMP'   (HEAR YOUR MASTER'S VOICE ...):  |
|                                                                             |
|      You have a (more or less) 'large supercell' and for larger cells       |
|      it might be more efficient to use real space projection opertators     |
|      So try LREAL= Auto  in the INCAR   file.                               |
|      Mind:          For very  accurate calculation you might also keep the  |
|      reciprocal projection scheme          (i.e. LREAL=.FALSE.)             |
|                                                                             |
 ----------------------------------------------------------------------------- 

  PAW_PBE V 08Apr2002                   :
 energy of atom  1       EATOM= -170.8679
 kinetic energy error for atom=    0.0066 (will be added to EATOM!!)
  PAW_PBE Fe 06Sep2000                  :
 energy of atom  2       EATOM= -594.3153
 kinetic energy error for atom=    0.0346 (will be added to EATOM!!)
 
 
 POSCAR: EA0     6.388  6.388  6.388 86.27 86.27 
  positions in direct lattice
  No initial velocities read in
 exchange correlation table for  LEXCH =        8
   RHO(1)=    0.500       N(1)  =     2000
   RHO(2)=  100.500       N(2)  =     4000
 


--------------------------------------------------------------------------------------------------------


 ion  position               nearest neighbor table
   1  0.503  0.633  0.264-   6 1.81   5 1.81  17 1.98  11 2.25  10 2.47  16 2.51  14 2.56  19 2.80
                             3 2.83   2 2.83  15 3.16
   2  0.264  0.503  0.633-   6 1.81   4 1.81  17 1.98  12 2.25  11 2.47  16 2.51  15 2.56  20 2.80
                             1 2.83   3 2.83  13 3.16
   3  0.633  0.264  0.503-   4 1.81   5 1.81  17 1.98  10 2.25  12 2.47  16 2.51  13 2.56  18 2.80
                             1 2.83   2 2.83  14 3.16
   4  0.497  0.367  0.736-   3 1.81   2 1.81  16 1.98  14 2.25  13 2.47  17 2.51  11 2.56  19 2.80
                             6 2.83   5 2.83  12 3.16
   5  0.736  0.497  0.367-   3 1.81   1 1.81  16 1.98  15 2.25  14 2.47  17 2.51  12 2.56  20 2.80
                             4 2.83   6 2.83  10 3.16
   6  0.367  0.736  0.497-   1 1.81   2 1.81  16 1.98  13 2.25  15 2.47  17 2.51  10 2.56  18 2.80
                             4 2.83   5 2.83  11 3.16
   7  0.219  0.219  0.219-  17 1.80   9 2.57  19 2.60  20 2.60  18 2.60  12 2.98  11 2.98  10 2.98

   8  0.781  0.781  0.781-  16 1.80   9 2.57  19 2.60  20 2.60  18 2.60  15 2.98  14 2.98  13 2.98

   9  0.000  0.000  0.000-   7 2.57   8 2.57  11 2.99  14 2.99  12 2.99  15 2.99  10 2.99  13 2.99

  10  0.626  0.985  0.307-  19 2.16   3 2.25   1 2.47   6 2.56  18 2.77  13 2.87  17 2.90  16 2.97
                             7 2.98   9 2.99  14 3.04  15 3.04   5 3.16
  11  0.307  0.626  0.985-  20 2.16   1 2.25   2 2.47   4 2.56  19 2.77  14 2.87  17 2.90  16 2.97
                             7 2.98   9 2.99  15 3.04  13 3.04   6 3.16
  12  0.985  0.307  0.626-  18 2.16   2 2.25   3 2.47   5 2.56  20 2.77  15 2.87  17 2.90  16 2.97
                             7 2.98   9 2.99  14 3.04  13 3.04   4 3.16
  13  0.374  0.015  0.693-  19 2.16   6 2.25   4 2.47   3 2.56  18 2.77  10 2.87  16 2.90  17 2.97
                             8 2.98   9 2.99  11 3.04  12 3.04   2 3.16
  14  0.693  0.374  0.015-  20 2.16   4 2.25   5 2.47   1 2.56  19 2.77  11 2.87  16 2.90  17 2.97
                             8 2.98   9 2.99  12 3.04  10 3.04   3 3.16
  15  0.015  0.693  0.374-  18 2.16   5 2.25   6 2.47   2 2.56  20 2.77  12 2.87  16 2.90  17 2.97
                             8 2.98   9 2.99  11 3.04  10 3.04   1 3.16
  16  0.628  0.628  0.628-   8 1.80   5 1.98   4 1.98   6 1.98   3 2.51   1 2.51   2 2.51  13 2.90
                            14 2.90  15 2.90  10 2.97  11 2.97  12 2.97  17 3.01
  17  0.372  0.372  0.372-   7 1.80   2 1.98   1 1.98   3 1.98   6 2.51   4 2.51   5 2.51  10 2.90
                            11 2.90  12 2.90  13 2.97  14 2.97  15 2.97  16 3.01
  18  0.000  0.000  0.500-  12 2.16  15 2.16   7 2.60   8 2.60  13 2.77  10 2.77   3 2.80   6 2.80

  19  0.500  0.000  0.000-  10 2.16  13 2.16   7 2.60   8 2.60  11 2.77  14 2.77   1 2.80   4 2.80

  20  0.000  0.500  0.000-  11 2.16  14 2.16   7 2.60   8 2.60  12 2.77  15 2.77   2 2.80   5 2.80

 
  LATTYP: Found a trigonal (rhomboedric) cell.
 ALAT       =     6.3878664294
 COS(alpha) =     0.0649730242
  
  Lattice vectors:
  
 A1 = (   6.3878670000,   0.0000000000,   0.0000000000)
 A2 = (   0.4150390000,   6.3743690000,   0.0000000000)
 A3 = (   0.4150390000,   0.3888940000,   6.3624950000)


Analysis of symmetry for initial positions (statically):
=====================================================================
 Subroutine PRICEL returns:
 Original cell was already a primitive cell.
 

 Routine SETGRP: Setting up the symmetry group for a 
 trigonal (rhombohedral) supercell.


 Subroutine GETGRP returns: Found  6 space group operations
 (whereof  6 operations were pure point group operations)
 out of a pool of 12 trial point group operations.


The static configuration has the point symmetry S_6 .


Analysis of symmetry for dynamics (positions and initial velocities):
=====================================================================
 Subroutine PRICEL returns:
 Original cell was already a primitive cell.
 

 Routine SETGRP: Setting up the symmetry group for a 
 trigonal (rhombohedral) supercell.


 Subroutine GETGRP returns: Found  6 space group operations
 (whereof  6 operations were pure point group operations)
 out of a pool of 12 trial point group operations.


The dynamic configuration has the point symmetry S_6 .


 Subroutine INISYM returns: Found  6 space group operations
 (whereof  6 operations are pure point group operations),
 and found     1 'primitive' translations

 
 
 KPOINTS: EA                                      

Automatic generation of k-mesh.
Space group operators:
 irot       det(A)        alpha          n_x          n_y          n_z        tau_x        tau_y        tau_z
    1     1.000000     0.000000     1.000000     0.000000     0.000000     0.000000     0.000000     0.000000
    2    -1.000000     0.000000     1.000000     0.000000     0.000000     0.000000     0.000000     0.000000
    3     1.000000   120.000000    -0.613717    -0.575057    -0.540981     0.000000     0.000000     0.000000
    4    -1.000000   120.000000    -0.613717    -0.575057    -0.540981     0.000000     0.000000     0.000000
    5     1.000000   120.000000     0.613717     0.575057     0.540981     0.000000     0.000000     0.000000
    6    -1.000000   120.000000     0.613717     0.575057     0.540981     0.000000     0.000000     0.000000
 
 Subroutine IBZKPT returns following result:
 ===========================================
 
 Found      4 irreducible k-points:
 
 Following reciprocal coordinates:
            Coordinates               Weight
  0.000000  0.000000  0.000000      1.000000
  0.500000 -0.000000 -0.000000      3.000000
  0.500000  0.500000 -0.000000      3.000000
  0.500000  0.500000  0.500000      1.000000
 
 Following cartesian coordinates:
            Coordinates               Weight
  0.000000  0.000000  0.000000      1.000000
  0.078273 -0.005096 -0.004794      3.000000
  0.078273  0.073343 -0.009589      3.000000
  0.078273  0.073343  0.068997      1.000000
 


--------------------------------------------------------------------------------------------------------




 Dimension of arrays:
   k-points           NKPTS =      4   k-points in BZ     NKDIM =      4   number of bands    NBANDS=     68
   number of dos      NEDOS =    301   number of ions     NIONS =     20
   non local maximal  LDIM  =      6   non local SUM 2l+1 LMDIM =     18
   total plane-waves  NPLWV =  21952
   max r-space proj   IRMAX =      1   max aug-charges    IRDMAX=   5337
   dimension x,y,z NGX =    28 NGY =   28 NGZ =   28
   dimension x,y,z NGXF=    56 NGYF=   56 NGZF=   56
   support grid    NGXF=    56 NGYF=   56 NGZF=   56
   ions per type =              17   3
   NGX,Y,Z   is equivalent  to a cutoff of   7.29,  7.29,  7.29 a.u.
   NGXF,Y,Z  is equivalent  to a cutoff of  14.57, 14.57, 14.57 a.u.

 SYSTEM =  unknown system                          
 POSCAR =  EA0     6.388  6.388  6.388 86.27 86.27 

 Startparameter for this run:
   NWRITE =      2    write-flag & timer
   PREC   = normal    normal or accurate (medium, high low for compatibility)
   ISTART =      0    job   : 0-new  1-cont  2-samecut
   ICHARG =      2    charge: 1-file 2-atom 10-const
   ISPIN  =      1    spin polarized calculation?
   LNONCOLLINEAR =      F non collinear calculations
   LSORBIT =      F    spin-orbit coupling
   INIWAV =      1    electr: 0-lowe 1-rand  2-diag
   LASPH  =      F    aspherical Exc in radial PAW
   METAGGA=      F    non-selfconsistent MetaGGA calc.

 Electronic Relaxation 1
   ENCUT  =  267.9 eV  19.69 Ry    4.44 a.u.   8.52  8.52  8.52*2*pi/ulx,y,z
   ENINI  =  267.9     initial cutoff
   ENAUG  =  511.4 eV  augmentation charge cutoff
   NELM   =     60;   NELMIN=  2; NELMDL= -5     # of ELM steps 
   EDIFF  = 0.1E-04   stopping-criterion for ELM
   LREAL  =      F    real-space projection
   NLSPLINE    = F    spline interpolate recip. space projectors
   LCOMPAT=      F    compatible to vasp.4.4
   GGA_COMPAT  = T    GGA compatible to vasp.4.4-vasp.4.6
   LMAXPAW     = -100 max onsite density
   LMAXMIX     =    2 max onsite mixed and CHGCAR
   VOSKOWN=      0    Vosko Wilk Nusair interpolation
   ROPT   =    0.00000   0.00000
 Ionic relaxation
   EDIFFG = -.1E-01   stopping-criterion for IOM
   NSW    =    500    number of steps for IOM
   NBLOCK =      1;   KBLOCK =    500    inner block; outer block 
   IBRION =      2    ionic relax: 0-MD 1-quasi-New 2-CG
   NFREE  =      1    steps in history (QN), initial steepest desc. (CG)
   ISIF   =      3    stress and relaxation
   IWAVPR =     11    prediction:  0-non 1-charg 2-wave 3-comb
   ISYM   =      2    0-nonsym 1-usesym 2-fastsym
   LCORR  =      T    Harris-Foulkes like correction to forces

   POTIM  = 0.5000    time-step for ionic-motion
   TEIN   =    0.0    initial temperature
   TEBEG  =    0.0;   TEEND  =   0.0 temperature during run
   SMASS  =  -3.00    Nose mass-parameter (am)
   estimated Nose-frequenzy (Omega)   =  0.10E-29 period in steps =****** mass=  -0.932E-27a.u.
   SCALEE = 1.0000    scale energy and forces
   NPACO  =    256;   APACO  = 16.0  distance and # of slots for P.C.
   PSTRESS=    0.0 pullay stress

  Mass of Ions in am
   POMASS =  50.94 55.85
  Ionic Valenz
   ZVAL   =   5.00  8.00
  Atomic Wigner-Seitz radii
   RWIGS  =  -1.00 -1.00
  virtual crystal weights 
   VCA    =   1.00  1.00
   NELECT =     109.0000    total number of electrons
   NUPDOWN=      -1.0000    fix difference up-down

 DOS related values:
   EMIN   =  10.00;   EMAX   =-10.00  energy-range for DOS
   EFERMI =   0.00
   ISMEAR =     0;   SIGMA  =   0.10  broadening in eV -4-tet -1-fermi 0-gaus

 Electronic relaxation 2 (details)
   IALGO  =     38    algorithm
   LDIAG  =      T    sub-space diagonalisation (order eigenvalues)
   LSUBROT=      F    optimize rotation matrix (better conditioning)
   TURBO    =      0    0=normal 1=particle mesh
   IRESTART =      0    0=no restart 2=restart with 2 vectors
   NREBOOT  =      0    no. of reboots
   NMIN     =      0    reboot dimension
   EREF     =   0.00    reference energy to select bands
   IMIX   =      4    mixing-type and parameters
     AMIX     =   0.40;   BMIX     =  1.00
     AMIX_MAG =   1.60;   BMIX_MAG =  1.00
     AMIN     =   0.10
     WC   =   100.;   INIMIX=   1;  MIXPRE=   1;  MAXMIX= -45

 Intra band minimization:
   WEIMIN = 0.0010     energy-eigenvalue tresh-hold
   EBREAK =  0.37E-07  absolut break condition
   DEPER  =   0.30     relativ break condition  

   TIME   =   0.40     timestep for ELM

  volume/ion in A,a.u.               =      12.95        87.42
  Fermi-wavevector in a.u.,A,eV,Ry     =   1.226714  2.318154 20.474433  1.504828
  Thomas-Fermi vector in A             =   2.361705
 
 Write flags
   LWAVE        =      F    write WAVECAR
   LDOWNSAMPLE  =      F    k-point downsampling of WAVECAR
   LCHARG       =      F    write CHGCAR
   LVTOT        =      F    write LOCPOT, total local potential
   LVHAR        =      F    write LOCPOT, Hartree potential only
   LELF         =      F    write electronic localiz. function (ELF)
   LORBIT       =      0    0 simple, 1 ext, 2 COOP (PROOUT), +10 PAW based schemes


 Dipole corrections
   LMONO  =      F    monopole corrections only (constant potential shift)
   LDIPOL =      F    correct potential (dipole corrections)
   IDIPOL =      0    1-x, 2-y, 3-z, 4-all directions 
   EPSILON=  1.0000000 bulk dielectric constant

 Exchange correlation treatment:
   GGA     =    --    GGA type
   LEXCH   =     8    internal setting for exchange type
   VOSKOWN=      0    Vosko Wilk Nusair interpolation
   LHFCALC =     F    Hartree Fock is set to
   LHFONE  =     F    Hartree Fock one center treatment
   AEXX    =    0.0000 exact exchange contribution

 Linear response parameters
   LEPSILON=     F    determine dielectric tensor
   LRPA    =     F    only Hartree local field effects (RPA)
   LNABLA  =     F    use nabla operator in PAW spheres
   LVEL    =     F    velocity operator in full k-point grid
   LINTERFAST=   F  fast interpolation
   KINTER  =     0    interpolate to denser k-point grid
   CSHIFT  =0.1000    complex shift for real part using Kramers Kronig
   OMEGAMAX=  -1.0    maximum frequency
   DEG_THRESHOLD= 0.2000000E-02 threshold for treating states as degnerate
   RTIME   =   -0.100 relaxation time in fs
  (WPLASMAI=    0.000 imaginary part of plasma frequency in eV, 0.658/RTIME)
   DFIELD  = 0.0000000 0.0000000 0.0000000 field for delta impulse in time
 
 Orbital magnetization related:
   ORBITALMAG=     F  switch on orbital magnetization
   LCHIMAG   =     F  perturbation theory with respect to B field
   DQ        =  0.001000  dq finite difference perturbation B field
   LLRAUG    =     F  two centre corrections for induced B field



--------------------------------------------------------------------------------------------------------


 conjugate gradient relaxation of ions
 charge density and potential will be updated during run
 non-spin polarized calculation
 Variant of blocked Davidson
 Davidson routine will perform the subspace rotation
 perform sub-space diagonalisation
    after iterative eigenvector-optimisation
 modified Broyden-mixing scheme, WC =      100.0
 initial mixing is a Kerker type mixing with AMIX =  0.4000 and BMIX =      1.0000
 Hartree-type preconditioning will be used
 using additional bands           13
 reciprocal scheme for non local part
 use partial core corrections
 calculate Harris-corrections to forces 
   (improved forces if not selfconsistent)
 use gradient corrections 
 use of overlap-Matrix (Vanderbilt PP)
 Gauss-broadening in eV      SIGMA  =   0.10


--------------------------------------------------------------------------------------------------------


  energy-cutoff  :      267.88
  volume of cell :      259.07
      direct lattice vectors                 reciprocal lattice vectors
     6.387867000  0.000000000  0.000000000     0.156546778 -0.010192855 -0.009588861
     0.415039000  6.374369000  0.000000000     0.000000000  0.156878273 -0.009588851
     0.415039000  0.388894000  6.362495000     0.000000000  0.000000000  0.157171047

  length of vectors
     6.387867000  6.387866429  6.387866509     0.157171035  0.157171049  0.157171047


 
 k-points in units of 2pi/SCALE and weight: EA                                      
   0.00000000  0.00000000  0.00000000       0.125
   0.07827339 -0.00509643 -0.00479443       0.375
   0.07827339  0.07334271 -0.00958886       0.375
   0.07827339  0.07334271  0.06899667       0.125
 
 k-points in reciprocal lattice and weights: EA                                      
   0.00000000  0.00000000  0.00000000       0.125
   0.50000000 -0.00000000 -0.00000000       0.375
   0.50000000  0.50000000 -0.00000000       0.375
   0.50000000  0.50000000  0.50000000       0.125
 
 position of ions in fractional coordinates (direct lattice) 
   0.50327600  0.63282000  0.26374100
   0.26374100  0.50327600  0.63282000
   0.63282000  0.26374100  0.50327600
   0.49672400  0.36718000  0.73625900
   0.73625900  0.49672400  0.36718000
   0.36718000  0.73625900  0.49672400
   0.21885600  0.21885600  0.21885600
   0.78114400  0.78114400  0.78114400
   0.00000000  0.00000000  0.00000000
   0.62584100  0.98529000  0.30672800
   0.30672800  0.62584100  0.98529000
   0.98529000  0.30672800  0.62584100
   0.37415900  0.01471000  0.69327200
   0.69327200  0.37415900  0.01471000
   0.01471000  0.69327200  0.37415900
   0.62802100  0.62802100  0.62802100
   0.37197900  0.37197900  0.37197900
   0.00000000  0.00000000  0.50000000
   0.50000000  0.00000000  0.00000000
   0.00000000  0.50000000  0.00000000
 
 position of ions in cartesian coordinates  (Angst):
   3.58696793  4.13639548  1.67805079
   2.15626658  3.45416683  4.02631409
   4.36071196  1.87690347  3.20209103
   3.63097707  2.62686752  4.68444421
   5.06167842  3.30909617  2.33618091
   2.85723304  4.88635953  3.16040397
   1.57969057  1.48018069  1.39247021
   5.63825443  5.28308231  4.97002479
   0.00000000  0.00000000  0.00000000
   4.53402693  6.39988671  1.95155537
   2.62801987  4.37251484  6.26890270
   6.68095398  2.19858326  3.98191023
   2.68391807  0.36337629  4.41093963
   4.58992513  2.39074816  0.09359230
   0.53699102  4.56467974  2.38058477
   4.53302104  4.24747119  3.99578047
   2.68492396  2.51579181  2.36671453
   0.20751950  0.19444700  3.18124750
   3.19393350  0.00000000  0.00000000
   0.20751950  3.18718450  0.00000000
 


--------------------------------------------------------------------------------------------------------


 k-point  1 :   0.0000 0.0000 0.0000  plane waves:    2609
 k-point  2 :   0.5000-0.0000-0.0000  plane waves:    2572
 k-point  3 :   0.5000 0.5000-0.0000  plane waves:    2568
 k-point  4 :   0.5000 0.5000 0.5000  plane waves:    2542

 maximum and minimum number of plane-waves per node :      2609     2542

 maximum number of plane-waves:      2609
 maximum index in each direction: 
   IXMAX=    8   IYMAX=    8   IZMAX=    8
   IXMIN=   -9   IYMIN=   -9   IZMIN=   -9


 serial   3D FFT for wavefunctions
 parallel 3D FFT for charge:
    minimum data exchange during FFTs selected (reduces bandwidth)


 total amount of memory used by VASP MPI-rank0    42418. kBytes
=======================================================================

   base      :      30000. kBytes
   nonl-proj :       3844. kBytes
   fftplans  :       1619. kBytes
   grid      :       3411. kBytes
   one-center:        311. kBytes
   wavefun   :       3233. kBytes
 
     INWAV:  cpu time    0.0000: real time    0.0001
 Broyden mixing: mesh for mixing (old mesh)
   NGX = 17   NGY = 17   NGZ = 17
  (NGX  = 56   NGY  = 56   NGZ  = 56)
  gives a total of   4913 points

 initial charge density was supplied:
 charge density of overlapping atoms calculated
 number of electron     109.0000000 magnetization 
 keeping initial charge density in first step


--------------------------------------------------------------------------------------------------------


 Maximum index for augmentation-charges         1275 (set IRDMAX)


--------------------------------------------------------------------------------------------------------


 First call to EWALD:  gamma=   0.278
 Maximum number of real-space cells 3x 3x 3
 Maximum number of reciprocal cells 3x 3x 3

    FEWALD:  cpu time    0.0025: real time    0.0025


--------------------------------------- Iteration      1(   1)  ---------------------------------------


    POTLOK:  cpu time    0.0360: real time    0.0361
    SETDIJ:  cpu time    0.0172: real time    0.0172
     EDDAV:  cpu time    0.7528: real time    0.7538
       DOS:  cpu time    0.0007: real time    0.0007
    --------------------------------------------
      LOOP:  cpu time    0.8068: real time    0.8078

 eigenvalue-minimisations  :   552
 total energy-change (2. order) : 0.6785522E+03  (-0.2401119E+04)
 number of electron     109.0000000 magnetization 
 augmentation part      109.0000000 magnetization 

 Free energy of the ion-electron system (eV)
  ---------------------------------------------------
  alpha Z        PSCENC =       552.45269307
  Ewald energy   TEWEN  =     -4958.67731341
  -Hartree energ DENC   =      -988.55683319
  -exchange      EXHF   =         0.00000000
  -V(xc)+E(xc)   XCENC  =      -771.05980081
  PAW double counting   =      5171.05454107    -4356.08836938
  entropy T*S    EENTRO =        -0.05302163
  eigenvalues    EBANDS =      1341.99606151
  atomic energy  EATOM  =      4687.48422623
  Solvation  Ediel_sol  =         0.00000000
  ---------------------------------------------------
  free energy    TOTEN  =       678.55218346 eV

  energy without entropy =      678.60520509  energy(sigma->0) =      678.57869428


--------------------------------------------------------------------------------------------------------




--------------------------------------- Iteration      1(   2)  ---------------------------------------


     EDDAV:  cpu time    0.7561: real time    0.7576
       DOS:  cpu time    0.0008: real time    0.0008
    --------------------------------------------
      LOOP:  cpu time    0.7569: real time    0.7584

 eigenvalue-minimisations  :   544
 total energy-change (2. order) :-0.7386390E+03  (-0.7147275E+03)
 number of electron     109.0000000 magnetization 
 augmentation part      109.0000000 magnetization 

 Free energy of the ion-electron system (eV)
  ---------------------------------------------------
  alpha Z        PSCENC =       552.45269307
  Ewald energy   TEWEN  =     -4958.67731341
  -Hartree energ DENC   =      -988.55683319
  -exchange      EXHF   =         0.00000000
  -V(xc)+E(xc)   XCENC  =      -771.05980081
  PAW double counting   =      5171.05454107    -4356.08836938
  entropy T*S    EENTRO =        -0.06315369
  eigenvalues    EBANDS =       603.36722175
  atomic energy  EATOM  =      4687.48422623
  Solvation  Ediel_sol  =         0.00000000
  ---------------------------------------------------
  free energy    TOTEN  =       -60.08678837 eV

  energy without entropy =      -60.02363468  energy(sigma->0) =      -60.05521152


--------------------------------------------------------------------------------------------------------




--------------------------------------- Iteration      1(   3)  ---------------------------------------


     EDDAV:  cpu time    1.1087: real time    1.1106
       DOS:  cpu time    0.0008: real time    0.0008
    --------------------------------------------
      LOOP:  cpu time    1.1095: real time    1.1114

 eigenvalue-minimisations  :   896
 total energy-change (2. order) :-0.1289259E+03  (-0.1219282E+03)
 number of electron     109.0000000 magnetization 
 augmentation part      109.0000000 magnetization 

 Free energy of the ion-electron system (eV)
  ---------------------------------------------------
  alpha Z        PSCENC =       552.45269307
  Ewald energy   TEWEN  =     -4958.67731341
  -Hartree energ DENC   =      -988.55683319
  -exchange      EXHF   =         0.00000000
  -V(xc)+E(xc)   XCENC  =      -771.05980081
  PAW double counting   =      5171.05454107    -4356.08836938
  entropy T*S    EENTRO =        -0.12088863
  eigenvalues    EBANDS =       474.49904579
  atomic energy  EATOM  =      4687.48422623
  Solvation  Ediel_sol  =         0.00000000
  ---------------------------------------------------
  free energy    TOTEN  =      -189.01269927 eV

  energy without entropy =     -188.89181063  energy(sigma->0) =     -188.95225495


--------------------------------------------------------------------------------------------------------




--------------------------------------- Iteration      1(   4)  ---------------------------------------


     EDDAV:  cpu time    1.0719: real time    1.0738
       DOS:  cpu time    0.0014: real time    0.0014
    --------------------------------------------
      LOOP:  cpu time    1.0734: real time    1.0752

 eigenvalue-minimisations  :   872
 total energy-change (2. order) :-0.1389080E+02  (-0.1293511E+02)
 number of electron     109.0000000 magnetization 
 augmentation part      109.0000000 magnetization 

 Free energy of the ion-electron system (eV)
  ---------------------------------------------------
  alpha Z        PSCENC =       552.45269307
  Ewald energy   TEWEN  =     -4958.67731341
  -Hartree energ DENC   =      -988.55683319
  -exchange      EXHF   =         0.00000000
  -V(xc)+E(xc)   XCENC  =      -771.05980081
  PAW double counting   =      5171.05454107    -4356.08836938
  entropy T*S    EENTRO =        -0.13341035
  eigenvalues    EBANDS =       460.62076463
  atomic energy  EATOM  =      4687.48422623
  Solvation  Ediel_sol  =         0.00000000
  ---------------------------------------------------
  free energy    TOTEN  =      -202.90350214 eV

  energy without entropy =     -202.77009179  energy(sigma->0) =     -202.83679697


--------------------------------------------------------------------------------------------------------




--------------------------------------- Iteration      1(   5)  ---------------------------------------


     EDDAV:  cpu time    1.0968: real time    1.0987
       DOS:  cpu time    0.0008: real time    0.0008
    CHARGE:  cpu time    0.0433: real time    0.0434
    MIXING:  cpu time    0.0017: real time    0.0017
    --------------------------------------------
      LOOP:  cpu time    1.1427: real time    1.1446

 eigenvalue-minimisations  :   888
 total energy-change (2. order) :-0.9403355E+00  (-0.8978006E+00)
 number of electron     108.9999758 magnetization 
 augmentation part       43.5883183 magnetization 

 Broyden mixing:
  rms(total) = 0.79280E+01    rms(broyden)= 0.79269E+01
  rms(prec ) = 0.16077E+02
  weight for this iteration     100.00

 Free energy of the ion-electron system (eV)
  ---------------------------------------------------
  alpha Z        PSCENC =       552.45269307
  Ewald energy   TEWEN  =     -4958.67731341
  -Hartree energ DENC   =      -988.55683319
  -exchange      EXHF   =         0.00000000
  -V(xc)+E(xc)   XCENC  =      -771.05980081
  PAW double counting   =      5171.05454107    -4356.08836938
  entropy T*S    EENTRO =        -0.13149326
  eigenvalues    EBANDS =       459.67851201
  atomic energy  EATOM  =      4687.48422623
  Solvation  Ediel_sol  =         0.00000000
  ---------------------------------------------------
  free energy    TOTEN  =      -203.84383767 eV

  energy without entropy =     -203.71234441  energy(sigma->0) =     -203.77809104


--------------------------------------------------------------------------------------------------------




--------------------------------------- Iteration      1(   6)  ---------------------------------------


    POTLOK:  cpu time    0.0330: real time    0.0335
    SETDIJ:  cpu time    0.0179: real time    0.0179
     EDDAV:  cpu time    1.2229: real time    1.2251
       DOS:  cpu time    0.0007: real time    0.0007
    CHARGE:  cpu time    0.0362: real time    0.0363
    MIXING:  cpu time    0.0019: real time    0.0019
    --------------------------------------------
      LOOP:  cpu time    1.3126: real time    1.3153

 eigenvalue-minimisations  :  1028
 total energy-change (2. order) :-0.3551236E+03  (-0.6235124E+03)
 number of electron     108.9999207 magnetization 
 augmentation part       65.3174928 magnetization 

 Broyden mixing:
  rms(total) = 0.36478E+02    rms(broyden)= 0.36478E+02
  rms(prec ) = 0.45225E+02
  weight for this iteration     100.00

 eigenvalues of (default mixing * dielectric matrix)
  average eigenvalue GAMMA=   0.0536
  0.0536

 Free energy of the ion-electron system (eV)
  ---------------------------------------------------
  alpha Z        PSCENC =       552.45269307
  Ewald energy   TEWEN  =     -4958.67731341
  -Hartree energ DENC   =      -977.74882907
  -exchange      EXHF   =         0.00000000
  -V(xc)+E(xc)   XCENC  =      -774.56567772
  PAW double counting   =      7090.96079555    -6277.97696105
  entropy T*S    EENTRO =        -0.08522763
  eigenvalues    EBANDS =        99.18882627
  atomic energy  EATOM  =      4687.48422623
  Solvation  Ediel_sol  =         0.00000000
  ---------------------------------------------------
  free energy    TOTEN  =      -558.96746777 eV

  energy without entropy =     -558.88224014  energy(sigma->0) =     -558.92485396


--------------------------------------------------------------------------------------------------------




--------------------------------------- Iteration      1(   7)  ---------------------------------------


    POTLOK:  cpu time    0.0318: real time    0.0319
    SETDIJ:  cpu time    0.0173: real time    0.0173
     EDDAV:  cpu time    0.8528: real time    0.8545
       DOS:  cpu time    0.0009: real time    0.0009
    CHARGE:  cpu time    0.0390: real time    0.0390
    MIXING:  cpu time    0.0024: real time    0.0024
    --------------------------------------------
      LOOP:  cpu time    0.9442: real time    0.9460

 eigenvalue-minimisations  :   640
 total energy-change (2. order) : 0.2640564E+03  (-0.1184258E+03)
 number of electron     108.9999352 magnetization 
 augmentation part       52.6001501 magnetization 

 Broyden mixing:
  rms(total) = 0.85642E+01    rms(broyden)= 0.85640E+01
  rms(prec ) = 0.23402E+02
  weight for this iteration     100.00

 eigenvalues of (default mixing * dielectric matrix)
  average eigenvalue GAMMA=   0.3261
  0.3261  0.3261

 Free energy of the ion-electron system (eV)
  ---------------------------------------------------
  alpha Z        PSCENC =       552.45269307
  Ewald energy   TEWEN  =     -4958.67731341
  -Hartree energ DENC   =      -972.00101854
  -exchange      EXHF   =         0.00000000
  -V(xc)+E(xc)   XCENC  =      -773.15314723
  PAW double counting   =      7679.85396491    -6884.46751084
  entropy T*S    EENTRO =        -0.14927236
  eigenvalues    EBANDS =       373.74634450
  atomic energy  EATOM  =      4687.48422623
  Solvation  Ediel_sol  =         0.00000000
  ---------------------------------------------------
  free energy    TOTEN  =      -294.91103368 eV

  energy without entropy =     -294.76176132  energy(sigma->0) =     -294.83639750


--------------------------------------------------------------------------------------------------------




--------------------------------------- Iteration      1(   8)  ---------------------------------------


    POTLOK:  cpu time    0.0328: real time    0.0329
    SETDIJ:  cpu time    0.0177: real time    0.0177
     EDDAV:  cpu time    1.1131: real time    1.1151
       DOS:  cpu time    0.0008: real time    0.0008
    CHARGE:  cpu time    0.0363: real time    0.0364
    MIXING:  cpu time    0.0021: real time    0.0021
    --------------------------------------------
      LOOP:  cpu time    1.2029: real time    1.2050

 eigenvalue-minimisations  :   984
 total energy-change (2. order) : 0.1632598E+03  (-0.9146537E+02)
 number of electron     108.9999569 magnetization 
 augmentation part       46.4622430 magnetization 

 Broyden mixing:
  rms(total) = 0.37108E+01    rms(broyden)= 0.37096E+01
  rms(prec ) = 0.62292E+01
  weight for this iteration     100.00

 eigenvalues of (default mixing * dielectric matrix)
  average eigenvalue GAMMA=   0.3630
  0.5554  0.2667  0.2667

 Free energy of the ion-electron system (eV)
  ---------------------------------------------------
  alpha Z        PSCENC =       552.45269307
  Ewald energy   TEWEN  =     -4958.67731341
  -Hartree energ DENC   =      -946.81025822
  -exchange      EXHF   =         0.00000000
  -V(xc)+E(xc)   XCENC  =      -771.64597405
  PAW double counting   =      7374.69864825    -6580.93928230
  entropy T*S    EENTRO =        -0.07431572
  eigenvalues    EBANDS =       511.86035182
  atomic energy  EATOM  =      4687.48422623
  Solvation  Ediel_sol  =         0.00000000
  ---------------------------------------------------
  free energy    TOTEN  =      -131.65122435 eV

  energy without entropy =     -131.57690862  energy(sigma->0) =     -131.61406648


--------------------------------------------------------------------------------------------------------




--------------------------------------- Iteration      1(   9)  ---------------------------------------


    POTLOK:  cpu time    0.0305: real time    0.0305
    SETDIJ:  cpu time    0.0171: real time    0.0171
     EDDAV:  cpu time    1.1444: real time    1.1461
       DOS:  cpu time    0.0009: real time    0.0009
    CHARGE:  cpu time    0.0394: real time    0.0394
    MIXING:  cpu time    0.0018: real time    0.0019
    --------------------------------------------
      LOOP:  cpu time    1.2341: real time    1.2358

 eigenvalue-minimisations  :   976
 total energy-change (2. order) :-0.1682765E+02  (-0.2801075E+02)
 number of electron     108.9999645 magnetization 
 augmentation part       43.8517726 magnetization 

 Broyden mixing:
  rms(total) = 0.38050E+01    rms(broyden)= 0.38041E+01
  rms(prec ) = 0.48604E+01
  weight for this iteration     100.00

 eigenvalues of (default mixing * dielectric matrix)
  average eigenvalue GAMMA=   0.4194
  1.0054  0.2778  0.2778  0.1166

 Free energy of the ion-electron system (eV)
  ---------------------------------------------------
  alpha Z        PSCENC =       552.45269307
  Ewald energy   TEWEN  =     -4958.67731341
  -Hartree energ DENC   =      -957.55900828
  -exchange      EXHF   =         0.00000000
  -V(xc)+E(xc)   XCENC  =      -770.75491280
  PAW double counting   =      7574.67348938    -6782.89517939
  entropy T*S    EENTRO =        -0.12341611
  eigenvalues    EBANDS =       506.92055180
  atomic energy  EATOM  =      4687.48422623
  Solvation  Ediel_sol  =         0.00000000
  ---------------------------------------------------
  free energy    TOTEN  =      -148.47886952 eV

  energy without entropy =     -148.35545341  energy(sigma->0) =     -148.41716146


--------------------------------------------------------------------------------------------------------




--------------------------------------- Iteration      1(  10)  ---------------------------------------


    POTLOK:  cpu time    0.0330: real time    0.0330
    SETDIJ:  cpu time    0.0182: real time    0.0182
     EDDAV:  cpu time    1.0878: real time    1.0896
       DOS:  cpu time    0.0009: real time    0.0009
    CHARGE:  cpu time    0.0381: real time    0.0381
    MIXING:  cpu time    0.0022: real time    0.0022
    --------------------------------------------
      LOOP:  cpu time    1.1802: real time    1.1821

 eigenvalue-minimisations  :   960
 total energy-change (2. order) :-0.1313134E+00  (-0.4787913E+01)
 number of electron     108.9999591 magnetization 
 augmentation part       44.9097956 magnetization 

 Broyden mixing:
  rms(total) = 0.26611E+01    rms(broyden)= 0.26606E+01
  rms(prec ) = 0.37680E+01
  weight for this iteration     100.00

 eigenvalues of (default mixing * dielectric matrix)
  average eigenvalue GAMMA=   0.5477
  1.6024  0.3098  0.3098  0.3754  0.1409

 Free energy of the ion-electron system (eV)
  ---------------------------------------------------
  alpha Z        PSCENC =       552.45269307
  Ewald energy   TEWEN  =     -4958.67731341
  -Hartree energ DENC   =      -922.61362906
  -exchange      EXHF   =         0.00000000
  -V(xc)+E(xc)   XCENC  =      -771.12336162
  PAW double counting   =      8116.93011821    -7321.44567212
  entropy T*S    EENTRO =        -0.08805652
  eigenvalues    EBANDS =       468.47081236
  atomic energy  EATOM  =      4687.48422623
  Solvation  Ediel_sol  =         0.00000000
  ---------------------------------------------------
  free energy    TOTEN  =      -148.61018287 eV

  energy without entropy =     -148.52212635  energy(sigma->0) =     -148.56615461


--------------------------------------------------------------------------------------------------------




--------------------------------------- Iteration      1(  11)  ---------------------------------------


    POTLOK:  cpu time    0.0334: real time    0.0334
    SETDIJ:  cpu time    0.0170: real time    0.0170
     EDDAV:  cpu time    1.2054: real time    1.2081
       DOS:  cpu time    0.0009: real time    0.0009
    CHARGE:  cpu time    0.0380: real time    0.0381
    MIXING:  cpu time    0.0020: real time    0.0020
    --------------------------------------------
      LOOP:  cpu time    1.2967: real time    1.2995

 eigenvalue-minimisations  :  1040
 total energy-change (2. order) :-0.3224443E+01  (-0.5853807E+01)
 number of electron     108.9999703 magnetization 
 augmentation part       46.0257013 magnetization 

 Broyden mixing:
  rms(total) = 0.37101E+01    rms(broyden)= 0.37085E+01
  rms(prec ) = 0.73708E+01
  weight for this iteration     100.00

 eigenvalues of (default mixing * dielectric matrix)
  average eigenvalue GAMMA=   0.5355
  1.3178  0.9490  0.3065  0.3065  0.2055  0.1278

 Free energy of the ion-electron system (eV)
  ---------------------------------------------------
  alpha Z        PSCENC =       552.45269307
  Ewald energy   TEWEN  =     -4958.67731341
  -Hartree energ DENC   =      -916.77623399
  -exchange      EXHF   =         0.00000000
  -V(xc)+E(xc)   XCENC  =      -769.74953590
  PAW double counting   =      9075.47945152    -8280.95667887
  entropy T*S    EENTRO =        -0.12624576
  eigenvalues    EBANDS =       459.03501083
  atomic energy  EATOM  =      4687.48422623
  Solvation  Ediel_sol  =         0.00000000
  ---------------------------------------------------
  free energy    TOTEN  =      -151.83462629 eV

  energy without entropy =     -151.70838052  energy(sigma->0) =     -151.77150340


--------------------------------------------------------------------------------------------------------




--------------------------------------- Iteration      1(  12)  ---------------------------------------


    POTLOK:  cpu time    0.0320: real time    0.0321
    SETDIJ:  cpu time    0.0176: real time    0.0176
     EDDAV:  cpu time    1.2136: real time    1.2158
       DOS:  cpu time    0.0008: real time    0.0086
    CHARGE:  cpu time    0.0378: real time    0.0379
    MIXING:  cpu time    0.0022: real time    0.0022
    --------------------------------------------
      LOOP:  cpu time    1.3041: real time    1.3141

 eigenvalue-minimisations  :  1024
 total energy-change (2. order) : 0.1365365E+01  (-0.9978075E+01)
 number of electron     108.9999600 magnetization 
 augmentation part       46.3010619 magnetization 

 Broyden mixing:
  rms(total) = 0.22089E+01    rms(broyden)= 0.22072E+01
  rms(prec ) = 0.39391E+01
  weight for this iteration     100.00

 eigenvalues of (default mixing * dielectric matrix)
  average eigenvalue GAMMA=   0.5518
  1.3422  1.3422  0.3027  0.3027  0.2801  0.1666  0.1265

 Free energy of the ion-electron system (eV)
  ---------------------------------------------------
  alpha Z        PSCENC =       552.45269307
  Ewald energy   TEWEN  =     -4958.67731341
  -Hartree energ DENC   =      -909.79152462
  -exchange      EXHF   =         0.00000000
  -V(xc)+E(xc)   XCENC  =      -770.34664499
  PAW double counting   =      9120.69691115    -8327.11231735
  entropy T*S    EENTRO =        -0.11702688
  eigenvalues    EBANDS =       454.94173527
  atomic energy  EATOM  =      4687.48422623
  Solvation  Ediel_sol  =         0.00000000
  ---------------------------------------------------
  free energy    TOTEN  =      -150.46926152 eV

  energy without entropy =     -150.35223465  energy(sigma->0) =     -150.41074809


--------------------------------------------------------------------------------------------------------




--------------------------------------- Iteration      1(  13)  ---------------------------------------


    POTLOK:  cpu time    0.0327: real time    0.0328
    SETDIJ:  cpu time    0.0178: real time    0.0178
     EDDAV:  cpu time    1.2459: real time    1.2490
       DOS:  cpu time    0.0011: real time    0.0011
    CHARGE:  cpu time    0.0409: real time    0.0409
    MIXING:  cpu time    0.0027: real time    0.0027
    --------------------------------------------
      LOOP:  cpu time    1.3410: real time    1.3442

 eigenvalue-minimisations  :  1024
 total energy-change (2. order) : 0.3391249E+01  (-0.2237255E+01)
 number of electron     108.9999575 magnetization 
 augmentation part       46.0628197 magnetization 

 Broyden mixing:
  rms(total) = 0.17376E+01    rms(broyden)= 0.17371E+01
  rms(prec ) = 0.28895E+01
  weight for this iteration     100.00

 eigenvalues of (default mixing * dielectric matrix)
  average eigenvalue GAMMA=   0.6168
  1.8472  1.4335  0.4833  0.3052  0.3052  0.2160  0.2160  0.1277

 Free energy of the ion-electron system (eV)
  ---------------------------------------------------
  alpha Z        PSCENC =       552.45269307
  Ewald energy   TEWEN  =     -4958.67731341
  -Hartree energ DENC   =      -908.29726051
  -exchange      EXHF   =         0.00000000
  -V(xc)+E(xc)   XCENC  =      -770.49273882
  PAW double counting   =      9307.26251845    -8514.08725596
  entropy T*S    EENTRO =        -0.08787584
  eigenvalues    EBANDS =       457.36499396
  atomic energy  EATOM  =      4687.48422623
  Solvation  Ediel_sol  =         0.00000000
  ---------------------------------------------------
  free energy    TOTEN  =      -147.07801283 eV

  energy without entropy =     -146.99013699  energy(sigma->0) =     -147.03407491


--------------------------------------------------------------------------------------------------------




--------------------------------------- Iteration      1(  14)  ---------------------------------------


    POTLOK:  cpu time    0.0333: real time    0.0334
    SETDIJ:  cpu time    0.0177: real time    0.0177
     EDDAV:  cpu time    1.0596: real time    1.0616
       DOS:  cpu time    0.0009: real time    0.0009
    CHARGE:  cpu time    0.0377: real time    0.0377
    MIXING:  cpu time    0.0023: real time    0.0024
    --------------------------------------------
      LOOP:  cpu time    1.1515: real time    1.1537

 eigenvalue-minimisations  :   856
 total energy-change (2. order) : 0.7696722E+00  (-0.3906122E+00)
 number of electron     108.9999575 magnetization 
 augmentation part       46.1837425 magnetization 

 Broyden mixing:
  rms(total) = 0.14300E+01    rms(broyden)= 0.14299E+01
  rms(prec ) = 0.23473E+01
  weight for this iteration     100.00

 eigenvalues of (default mixing * dielectric matrix)
  average eigenvalue GAMMA=   0.6127
  2.1611  1.3905  0.5756  0.3056  0.3056  0.1275  0.2320  0.2320  0.1844

 Free energy of the ion-electron system (eV)
  ---------------------------------------------------
  alpha Z        PSCENC =       552.45269307
  Ewald energy   TEWEN  =     -4958.67731341
  -Hartree energ DENC   =      -905.98382068
  -exchange      EXHF   =         0.00000000
  -V(xc)+E(xc)   XCENC  =      -770.26734328
  PAW double counting   =      9513.72813719    -8720.02683553
  entropy T*S    EENTRO =        -0.07796901
  eigenvalues    EBANDS =       455.05988478
  atomic energy  EATOM  =      4687.48422623
  Solvation  Ediel_sol  =         0.00000000
  ---------------------------------------------------
  free energy    TOTEN  =      -146.30834064 eV

  energy without entropy =     -146.23037163  energy(sigma->0) =     -146.26935614


--------------------------------------------------------------------------------------------------------




--------------------------------------- Iteration      1(  15)  ---------------------------------------


    POTLOK:  cpu time    0.0319: real time    0.0325
    SETDIJ:  cpu time    0.0176: real time    0.0176
     EDDAV:  cpu time    1.2346: real time    1.2369
       DOS:  cpu time    0.0009: real time    0.0009
    CHARGE:  cpu time    0.0380: real time    0.0381
    MIXING:  cpu time    0.0024: real time    0.0024
    --------------------------------------------
      LOOP:  cpu time    1.3255: real time    1.3284

 eigenvalue-minimisations  :  1024
 total energy-change (2. order) : 0.7586415E+00  (-0.2155594E+00)
 number of electron     108.9999590 magnetization 
 augmentation part       46.4117865 magnetization 

 Broyden mixing:
  rms(total) = 0.98616E+00    rms(broyden)= 0.98604E+00
  rms(prec ) = 0.12889E+01
  weight for this iteration     100.00

 eigenvalues of (default mixing * dielectric matrix)
  average eigenvalue GAMMA=   0.6567
  1.7764  1.7764  0.7490  0.7490  0.3043  0.3043  0.3623  0.2088  0.2088  0.1276

 Free energy of the ion-electron system (eV)
  ---------------------------------------------------
  alpha Z        PSCENC =       552.45269307
  Ewald energy   TEWEN  =     -4958.67731341
  -Hartree energ DENC   =      -903.82917935
  -exchange      EXHF   =         0.00000000
  -V(xc)+E(xc)   XCENC  =      -769.96263359
  PAW double counting   =      9696.00257499    -8901.33660267
  entropy T*S    EENTRO =        -0.09569317
  eigenvalues    EBANDS =       452.41222875
  atomic energy  EATOM  =      4687.48422623
  Solvation  Ediel_sol  =         0.00000000
  ---------------------------------------------------
  free energy    TOTEN  =      -145.54969917 eV

  energy without entropy =     -145.45400599  energy(sigma->0) =     -145.50185258


--------------------------------------------------------------------------------------------------------




--------------------------------------- Iteration      1(  16)  ---------------------------------------


    POTLOK:  cpu time    0.0318: real time    0.0319
    SETDIJ:  cpu time    0.0175: real time    0.0175
     EDDAV:  cpu time    1.0889: real time    1.0919
       DOS:  cpu time    0.0010: real time    0.0010
    CHARGE:  cpu time    0.0367: real time    0.0368
    MIXING:  cpu time    0.0027: real time    0.0027
    --------------------------------------------
      LOOP:  cpu time    1.1785: real time    1.1818

 eigenvalue-minimisations  :   880
 total energy-change (2. order) : 0.4155709E-01  (-0.3016068E-01)
 number of electron     108.9999592 magnetization 
 augmentation part       46.3778251 magnetization 

 Broyden mixing:
  rms(total) = 0.85018E+00    rms(broyden)= 0.85017E+00
  rms(prec ) = 0.11211E+01
  weight for this iteration     100.00

 eigenvalues of (default mixing * dielectric matrix)
  average eigenvalue GAMMA=   0.7840
  2.2256  2.2256  1.0043  1.0043  0.6491  0.3045  0.3045  0.3610  0.2089  0.2089
  0.1276

 Free energy of the ion-electron system (eV)
  ---------------------------------------------------
  alpha Z        PSCENC =       552.45269307
  Ewald energy   TEWEN  =     -4958.67731341
  -Hartree energ DENC   =      -904.27619643
  -exchange      EXHF   =         0.00000000
  -V(xc)+E(xc)   XCENC  =      -769.98576116
  PAW double counting   =      9589.92385479    -8794.12034618
  entropy T*S    EENTRO =        -0.09856078
  eigenvalues    EBANDS =       451.78926180
  atomic energy  EATOM  =      4687.48422623
  Solvation  Ediel_sol  =         0.00000000
  ---------------------------------------------------
  free energy    TOTEN  =      -145.50814208 eV

  energy without entropy =     -145.40958130  energy(sigma->0) =     -145.45886169


--------------------------------------------------------------------------------------------------------




--------------------------------------- Iteration      1(  17)  ---------------------------------------


    POTLOK:  cpu time    0.0318: real time    0.0320
    SETDIJ:  cpu time    0.0177: real time    0.0177
     EDDAV:  cpu time    1.0564: real time    1.0583
       DOS:  cpu time    0.0010: real time    0.0009
    CHARGE:  cpu time    0.0376: real time    0.0377
    MIXING:  cpu time    0.0024: real time    0.0025
    --------------------------------------------
      LOOP:  cpu time    1.1468: real time    1.1491

 eigenvalue-minimisations  :   896
 total energy-change (2. order) : 0.7977980E-01  (-0.7221280E-01)
 number of electron     108.9999599 magnetization 
 augmentation part       46.5416443 magnetization 

 Broyden mixing:
  rms(total) = 0.61542E+00    rms(broyden)= 0.61530E+00
  rms(prec ) = 0.87671E+00
  weight for this iteration     100.00

 eigenvalues of (default mixing * dielectric matrix)
  average eigenvalue GAMMA=   0.7988
  2.4626  2.4626  1.0463  0.9476  0.6607  0.3045  0.3045  0.4866  0.3656  0.2088
  0.2088  0.1276

 Free energy of the ion-electron system (eV)
  ---------------------------------------------------
  alpha Z        PSCENC =       552.45269307
  Ewald energy   TEWEN  =     -4958.67731341
  -Hartree energ DENC   =      -903.27420070
  -exchange      EXHF   =         0.00000000
  -V(xc)+E(xc)   XCENC  =      -769.87976755
  PAW double counting   =      9579.42686344    -8782.22532245
  entropy T*S    EENTRO =        -0.10911085
  eigenvalues    EBANDS =       449.37356996
  atomic energy  EATOM  =      4687.48422623
  Solvation  Ediel_sol  =         0.00000000
  ---------------------------------------------------
  free energy    TOTEN  =      -145.42836228 eV

  energy without entropy =     -145.31925143  energy(sigma->0) =     -145.37380686


--------------------------------------------------------------------------------------------------------




--------------------------------------- Iteration      1(  18)  ---------------------------------------


    POTLOK:  cpu time    0.0306: real time    0.0307
    SETDIJ:  cpu time    0.0179: real time    0.0180
     EDDAV:  cpu time    1.0803: real time    1.0822
       DOS:  cpu time    0.0009: real time    0.0009
    CHARGE:  cpu time    0.0370: real time    0.0371
    MIXING:  cpu time    0.0025: real time    0.0025
    --------------------------------------------
      LOOP:  cpu time    1.1693: real time    1.1714

 eigenvalue-minimisations  :   960
 total energy-change (2. order) : 0.2991202E-01  (-0.1526660E-01)
 number of electron     108.9999601 magnetization 
 augmentation part       46.5434266 magnetization 

 Broyden mixing:
  rms(total) = 0.49890E+00    rms(broyden)= 0.49886E+00
  rms(prec ) = 0.59617E+00
  weight for this iteration     100.00

 eigenvalues of (default mixing * dielectric matrix)
  average eigenvalue GAMMA=   0.7810
  2.4755  2.4755  1.1002  0.7998  0.7998  0.6080  0.3045  0.3045  0.1276  0.2088
  0.2088  0.3700  0.3700

 Free energy of the ion-electron system (eV)
  ---------------------------------------------------
  alpha Z        PSCENC =       552.45269307
  Ewald energy   TEWEN  =     -4958.67731341
  -Hartree energ DENC   =      -902.88078211
  -exchange      EXHF   =         0.00000000
  -V(xc)+E(xc)   XCENC  =      -769.82039828
  PAW double counting   =      9587.49928442    -8789.73985512
  entropy T*S    EENTRO =        -0.11422127
  eigenvalues    EBANDS =       448.39791622
  atomic energy  EATOM  =      4687.48422623
  Solvation  Ediel_sol  =         0.00000000
  ---------------------------------------------------
  free energy    TOTEN  =      -145.39845026 eV

  energy without entropy =     -145.28422899  energy(sigma->0) =     -145.34133963


--------------------------------------------------------------------------------------------------------




--------------------------------------- Iteration      1(  19)  ---------------------------------------


    POTLOK:  cpu time    0.0296: real time    0.0297
    SETDIJ:  cpu time    0.0176: real time    0.0176
     EDDAV:  cpu time    1.0150: real time    1.0168
       DOS:  cpu time    0.0008: real time    0.0008
    CHARGE:  cpu time    0.0368: real time    0.0372
    MIXING:  cpu time    0.0026: real time    0.0026
    --------------------------------------------
      LOOP:  cpu time    1.1024: real time    1.1047

 eigenvalue-minimisations  :   928
 total energy-change (2. order) : 0.9441305E-02  (-0.3692873E-02)
 number of electron     108.9999600 magnetization 
 augmentation part       46.4930987 magnetization 

 Broyden mixing:
  rms(total) = 0.43593E+00    rms(broyden)= 0.43592E+00
  rms(prec ) = 0.50068E+00
  weight for this iteration     100.00

 eigenvalues of (default mixing * dielectric matrix)
  average eigenvalue GAMMA=   0.8896
  3.2447  1.8383  1.8383  1.0992  1.0992  0.7329  0.6352  0.3045  0.3045  0.4454
  0.3667  0.1276  0.2088  0.2088

 Free energy of the ion-electron system (eV)
  ---------------------------------------------------
  alpha Z        PSCENC =       552.45269307
  Ewald energy   TEWEN  =     -4958.67731341
  -Hartree energ DENC   =      -903.37505754
  -exchange      EXHF   =         0.00000000
  -V(xc)+E(xc)   XCENC  =      -769.85805731
  PAW double counting   =      9558.03278211    -8760.48815042
  entropy T*S    EENTRO =        -0.11067686
  eigenvalues    EBANDS =       449.15054517
  atomic energy  EATOM  =      4687.48422623
  Solvation  Ediel_sol  =         0.00000000
  ---------------------------------------------------
  free energy    TOTEN  =      -145.38900896 eV

  energy without entropy =     -145.27833210  energy(sigma->0) =     -145.33367053


--------------------------------------------------------------------------------------------------------




--------------------------------------- Iteration      1(  20)  ---------------------------------------


    POTLOK:  cpu time    0.0312: real time    0.0313
    SETDIJ:  cpu time    0.0185: real time    0.0185
     EDDAV:  cpu time    1.0335: real time    1.0353
       DOS:  cpu time    0.0009: real time    0.0009
    CHARGE:  cpu time    0.0352: real time    0.0352
    MIXING:  cpu time    0.0024: real time    0.0024
    --------------------------------------------
      LOOP:  cpu time    1.1217: real time    1.1237

 eigenvalue-minimisations  :   888
 total energy-change (2. order) : 0.3500302E-02  (-0.1121206E-02)
 number of electron     108.9999600 magnetization 
 augmentation part       46.5296820 magnetization 

 Broyden mixing:
  rms(total) = 0.31878E+00    rms(broyden)= 0.31878E+00
  rms(prec ) = 0.39137E+00
  weight for this iteration     100.00

 eigenvalues of (default mixing * dielectric matrix)
  average eigenvalue GAMMA=   0.9244
  2.8533  2.2822  2.2822  1.1132  1.1132  0.8469  0.8469  0.5542  0.3045  0.3045
  0.4540  0.3657  0.1276  0.2088  0.2088

 Free energy of the ion-electron system (eV)
  ---------------------------------------------------
  alpha Z        PSCENC =       552.45269307
  Ewald energy   TEWEN  =     -4958.67731341
  -Hartree energ DENC   =      -902.82287599
  -exchange      EXHF   =         0.00000000
  -V(xc)+E(xc)   XCENC  =      -769.83466104
  PAW double counting   =      9559.04045373    -8761.32068732
  entropy T*S    EENTRO =        -0.11190436
  eigenvalues    EBANDS =       448.40456043
  atomic energy  EATOM  =      4687.48422623
  Solvation  Ediel_sol  =         0.00000000
  ---------------------------------------------------
  free energy    TOTEN  =      -145.38550866 eV

  energy without entropy =     -145.27360429  energy(sigma->0) =     -145.32955648


--------------------------------------------------------------------------------------------------------




--------------------------------------- Iteration      1(  21)  ---------------------------------------


    POTLOK:  cpu time    0.0311: real time    0.0311
    SETDIJ:  cpu time    0.0184: real time    0.0184
     EDDAV:  cpu time    1.1287: real time    1.1386
       DOS:  cpu time    0.0009: real time    0.0009
    CHARGE:  cpu time    0.0379: real time    0.0379
    MIXING:  cpu time    0.0029: real time    0.0029
    --------------------------------------------
      LOOP:  cpu time    1.2199: real time    1.2299

 eigenvalue-minimisations  :   984
 total energy-change (2. order) : 0.7634661E-02  (-0.1397297E-02)
 number of electron     108.9999600 magnetization 
 augmentation part       46.5095182 magnetization 

 Broyden mixing:
  rms(total) = 0.22238E+00    rms(broyden)= 0.22238E+00
  rms(prec ) = 0.24632E+00
  weight for this iteration     100.00

 eigenvalues of (default mixing * dielectric matrix)
  average eigenvalue GAMMA=   0.9217
  3.0470  2.3004  2.3004  1.2056  1.2056  0.8440  0.8440  0.3045  0.3045  0.5212
  0.4796  0.4796  0.1276  0.2088  0.2088  0.3660

 Free energy of the ion-electron system (eV)
  ---------------------------------------------------
  alpha Z        PSCENC =       552.45269307
  Ewald energy   TEWEN  =     -4958.67731341
  -Hartree energ DENC   =      -902.82827087
  -exchange      EXHF   =         0.00000000
  -V(xc)+E(xc)   XCENC  =      -769.85277042
  PAW double counting   =      9532.56186119    -8734.90346400
  entropy T*S    EENTRO =        -0.11106353
  eigenvalues    EBANDS =       448.49622775
  atomic energy  EATOM  =      4687.48422623
  Solvation  Ediel_sol  =         0.00000000
  ---------------------------------------------------
  free energy    TOTEN  =      -145.37787400 eV

  energy without entropy =     -145.26681047  energy(sigma->0) =     -145.32234223


--------------------------------------------------------------------------------------------------------




--------------------------------------- Iteration      1(  22)  ---------------------------------------


    POTLOK:  cpu time    0.0312: real time    0.0312
    SETDIJ:  cpu time    0.0168: real time    0.0168
     EDDAV:  cpu time    0.8868: real time    0.8879
       DOS:  cpu time    0.0011: real time    0.0011
    CHARGE:  cpu time    0.0399: real time    0.0400
    MIXING:  cpu time    0.0039: real time    0.0039
    --------------------------------------------
      LOOP:  cpu time    0.9797: real time    0.9809

 eigenvalue-minimisations  :   688
 total energy-change (2. order) : 0.1032512E-02  (-0.1960884E-03)
 number of electron     108.9999600 magnetization 
 augmentation part       46.5140854 magnetization 

 Broyden mixing:
  rms(total) = 0.16962E+00    rms(broyden)= 0.16962E+00
  rms(prec ) = 0.19465E+00
  weight for this iteration     100.00

 eigenvalues of (default mixing * dielectric matrix)
  average eigenvalue GAMMA=   0.9575
  3.5494  2.3216  2.3216  1.2940  1.2940  0.8838  0.8838  0.6018  0.6018  0.3045
  0.3045  0.5437  0.4624  0.3657  0.1276  0.2088  0.2088

 Free energy of the ion-electron system (eV)
  ---------------------------------------------------
  alpha Z        PSCENC =       552.45269307
  Ewald energy   TEWEN  =     -4958.67731341
  -Hartree energ DENC   =      -902.73394048
  -exchange      EXHF   =         0.00000000
  -V(xc)+E(xc)   XCENC  =      -769.86179183
  PAW double counting   =      9516.84061524    -8719.13073819
  entropy T*S    EENTRO =        -0.11089632
  eigenvalues    EBANDS =       448.36030421
  atomic energy  EATOM  =      4687.48422623
  Solvation  Ediel_sol  =         0.00000000
  ---------------------------------------------------
  free energy    TOTEN  =      -145.37684148 eV

  energy without entropy =     -145.26594517  energy(sigma->0) =     -145.32139333


--------------------------------------------------------------------------------------------------------




--------------------------------------- Iteration      1(  23)  ---------------------------------------


    POTLOK:  cpu time    0.0329: real time    0.0329
    SETDIJ:  cpu time    0.0172: real time    0.0173
     EDDAV:  cpu time    1.1039: real time    1.1051
       DOS:  cpu time    0.0010: real time    0.0010
    CHARGE:  cpu time    0.0389: real time    0.0390
    MIXING:  cpu time    0.0032: real time    0.0032
    --------------------------------------------
      LOOP:  cpu time    1.1971: real time    1.1985

 eigenvalue-minimisations  :   952
 total energy-change (2. order) : 0.1481871E-02  (-0.3400205E-03)
 number of electron     108.9999600 magnetization 
 augmentation part       46.5181081 magnetization 

 Broyden mixing:
  rms(total) = 0.81655E-01    rms(broyden)= 0.81654E-01
  rms(prec ) = 0.99710E-01
  weight for this iteration     100.00

 eigenvalues of (default mixing * dielectric matrix)
  average eigenvalue GAMMA=   1.0768
  4.4961  2.5434  2.5434  1.3223  1.3223  1.1680  1.1680  0.9417  0.7625  0.3045
  0.3045  0.1276  0.2088  0.2088  0.5651  0.5651  0.3658  0.4655

 Free energy of the ion-electron system (eV)
  ---------------------------------------------------
  alpha Z        PSCENC =       552.45269307
  Ewald energy   TEWEN  =     -4958.67731341
  -Hartree energ DENC   =      -902.57119649
  -exchange      EXHF   =         0.00000000
  -V(xc)+E(xc)   XCENC  =      -769.87026704
  PAW double counting   =      9496.21348303    -8698.45822989
  entropy T*S    EENTRO =        -0.11096648
  eigenvalues    EBANDS =       448.16221137
  atomic energy  EATOM  =      4687.48422623
  Solvation  Ediel_sol  =         0.00000000
  ---------------------------------------------------
  free energy    TOTEN  =      -145.37535961 eV

  energy without entropy =     -145.26439313  energy(sigma->0) =     -145.31987637


--------------------------------------------------------------------------------------------------------




--------------------------------------- Iteration      1(  24)  ---------------------------------------


    POTLOK:  cpu time    0.0319: real time    0.0319
    SETDIJ:  cpu time    0.0174: real time    0.0174
     EDDAV:  cpu time    1.1825: real time    1.1840
       DOS:  cpu time    0.0009: real time    0.0009
    CHARGE:  cpu time    0.0396: real time    0.0397
    MIXING:  cpu time    0.0032: real time    0.0032
    --------------------------------------------
      LOOP:  cpu time    1.2755: real time    1.2771

 eigenvalue-minimisations  :   968
 total energy-change (2. order) : 0.4761522E-03  (-0.1393696E-03)
 number of electron     108.9999600 magnetization 
 augmentation part       46.5176531 magnetization 

 Broyden mixing:
  rms(total) = 0.35215E-01    rms(broyden)= 0.35212E-01
  rms(prec ) = 0.43585E-01
  weight for this iteration     100.00

 eigenvalues of (default mixing * dielectric matrix)
  average eigenvalue GAMMA=   1.1399
  5.3969  2.6343  2.6343  1.5609  1.5609  1.1398  1.1398  0.9117  0.9117  0.3045
  0.3045  0.1276  0.2088  0.2088  0.5953  0.5953  0.5912  0.4663  0.3658

 Free energy of the ion-electron system (eV)
  ---------------------------------------------------
  alpha Z        PSCENC =       552.45269307
  Ewald energy   TEWEN  =     -4958.67731341
  -Hartree energ DENC   =      -902.47793910
  -exchange      EXHF   =         0.00000000
  -V(xc)+E(xc)   XCENC  =      -769.87723309
  PAW double counting   =      9486.08054896    -8688.31517074
  entropy T*S    EENTRO =        -0.11062008
  eigenvalues    EBANDS =       448.06592470
  atomic energy  EATOM  =      4687.48422623
  Solvation  Ediel_sol  =         0.00000000
  ---------------------------------------------------
  free energy    TOTEN  =      -145.37488346 eV

  energy without entropy =     -145.26426339  energy(sigma->0) =     -145.31957342


--------------------------------------------------------------------------------------------------------




--------------------------------------- Iteration      1(  25)  ---------------------------------------


    POTLOK:  cpu time    0.0313: real time    0.0314
    SETDIJ:  cpu time    0.0172: real time    0.0172
     EDDAV:  cpu time    1.1469: real time    1.1482
       DOS:  cpu time    0.0009: real time    0.0009
    CHARGE:  cpu time    0.0446: real time    0.0447
    MIXING:  cpu time    0.0044: real time    0.0044
    --------------------------------------------
      LOOP:  cpu time    1.2453: real time    1.2467

 eigenvalue-minimisations  :   952
 total energy-change (2. order) : 0.1023815E-03  (-0.3830081E-04)
 number of electron     108.9999600 magnetization 
 augmentation part       46.5189475 magnetization 

 Broyden mixing:
  rms(total) = 0.14064E-01    rms(broyden)= 0.14061E-01
  rms(prec ) = 0.15786E-01
  weight for this iteration     100.00

 eigenvalues of (default mixing * dielectric matrix)
  average eigenvalue GAMMA=   1.1714
  6.2995  2.5985  2.2582  2.2582  1.1930  1.1930  1.1308  0.9507  0.9507  0.3045
  0.3045  0.1276  0.2088  0.2088  0.7158  0.7158  0.5887  0.5887  0.4669  0.3658

 Free energy of the ion-electron system (eV)
  ---------------------------------------------------
  alpha Z        PSCENC =       552.45269307
  Ewald energy   TEWEN  =     -4958.67731341
  -Hartree energ DENC   =      -902.42129797
  -exchange      EXHF   =         0.00000000
  -V(xc)+E(xc)   XCENC  =      -769.88047217
  PAW double counting   =      9481.41367212    -8683.64286537
  entropy T*S    EENTRO =        -0.11050477
  eigenvalues    EBANDS =       448.00708119
  atomic energy  EATOM  =      4687.48422623
  Solvation  Ediel_sol  =         0.00000000
  ---------------------------------------------------
  free energy    TOTEN  =      -145.37478108 eV

  energy without entropy =     -145.26427631  energy(sigma->0) =     -145.31952869


--------------------------------------------------------------------------------------------------------




--------------------------------------- Iteration      1(  26)  ---------------------------------------


    POTLOK:  cpu time    0.0358: real time    0.0358
    SETDIJ:  cpu time    0.0176: real time    0.0176
     EDDAV:  cpu time    0.9753: real time    0.9765
       DOS:  cpu time    0.0010: real time    0.0010
    CHARGE:  cpu time    0.0398: real time    0.0398
    MIXING:  cpu time    0.0041: real time    0.0041
    --------------------------------------------
      LOOP:  cpu time    1.0735: real time    1.0748

 eigenvalue-minimisations  :   760
 total energy-change (2. order) : 0.1526234E-04  (-0.1055889E-04)
 number of electron     108.9999600 magnetization 
 augmentation part       46.5188015 magnetization 

 Broyden mixing:
  rms(total) = 0.25823E-02    rms(broyden)= 0.25810E-02
  rms(prec ) = 0.29258E-02
  weight for this iteration     100.00

 eigenvalues of (default mixing * dielectric matrix)
  average eigenvalue GAMMA=   1.1736
  6.3919  2.4787  2.4787  2.0051  1.5873  1.1759  1.1759  0.9282  0.9282  0.8650
  0.8650  0.3045  0.3045  0.1276  0.2088  0.2088  0.6020  0.6020  0.5757  0.3658
  0.4672

 Free energy of the ion-electron system (eV)
  ---------------------------------------------------
  alpha Z        PSCENC =       552.45269307
  Ewald energy   TEWEN  =     -4958.67731341
  -Hartree energ DENC   =      -902.41338872
  -exchange      EXHF   =         0.00000000
  -V(xc)+E(xc)   XCENC  =      -769.88179081
  PAW double counting   =      9478.01856212    -8680.23505033
  entropy T*S    EENTRO =        -0.11054148
  eigenvalues    EBANDS =       447.98783753
  atomic energy  EATOM  =      4687.48422623
  Solvation  Ediel_sol  =         0.00000000
  ---------------------------------------------------
  free energy    TOTEN  =      -145.37476582 eV

  energy without entropy =     -145.26422434  energy(sigma->0) =     -145.31949508


--------------------------------------------------------------------------------------------------------




--------------------------------------- Iteration      1(  27)  ---------------------------------------


    POTLOK:  cpu time    0.0331: real time    0.0331
    SETDIJ:  cpu time    0.0174: real time    0.0174
     EDDAV:  cpu time    0.6572: real time    0.6580
       DOS:  cpu time    0.0010: real time    0.0010
    --------------------------------------------
      LOOP:  cpu time    0.7086: real time    0.7095

 eigenvalue-minimisations  :   424
 total energy-change (2. order) :-0.5850779E-06  (-0.1203752E-05)
 number of electron     108.9999600 magnetization 
 augmentation part       46.5188015 magnetization 

 Free energy of the ion-electron system (eV)
  ---------------------------------------------------
  alpha Z        PSCENC =       552.45269307
  Ewald energy   TEWEN  =     -4958.67731341
  -Hartree energ DENC   =      -902.40468455
  -exchange      EXHF   =         0.00000000
  -V(xc)+E(xc)   XCENC  =      -769.88166771
  PAW double counting   =      9478.04156421    -8680.25499589
  entropy T*S    EENTRO =        -0.11055267
  eigenvalues    EBANDS =       447.97596433
  atomic energy  EATOM  =      4687.48422623
  Solvation  Ediel_sol  =         0.00000000
  ---------------------------------------------------
  free energy    TOTEN  =      -145.37476640 eV

  energy without entropy =     -145.26421374  energy(sigma->0) =     -145.31949007


--------------------------------------------------------------------------------------------------------




 average (electrostatic) potential at core
  the test charge radii are     1.2064  1.0103
  (the norm of the test charge is              1.0000)
       1 -39.1685       2 -39.1685       3 -39.1685       4 -39.1685       5 -39.1685
       6 -39.1685       7 -39.5287       8 -39.5287       9 -39.8633      10 -39.5504
      11 -39.5504      12 -39.5504      13 -39.5504      14 -39.5504      15 -39.5504
      16 -38.9313      17 -38.9313      18 -42.7855      19 -42.7855      20 -42.7855
 
 
 
 E-fermi :   6.3850     XC(G=0): -12.3439     alpha+bet :-15.2488


 k-point     1 :       0.0000    0.0000    0.0000
  band No.  band energies     occupation 
      1      -0.1110      2.00000
      2      -0.0592      2.00000
      3       1.4077      2.00000
      4       1.4077      2.00000
      5       1.9634      2.00000
      6       1.9634      2.00000
      7       2.3365      2.00000
      8       2.3365      2.00000
      9       2.7153      2.00000
     10       2.8079      2.00000
     11       2.8079      2.00000
     12       3.1485      2.00000
     13       3.1751      2.00000
     14       3.1751      2.00000
     15       3.2888      2.00000
     16       3.5832      2.00000
     17       3.6419      2.00000
     18       3.6425      2.00000
     19       3.6425      2.00000
     20       3.6825      2.00000
     21       3.7620      2.00000
     22       3.7620      2.00000
     23       3.9667      2.00000
     24       3.9667      2.00000
     25       4.2005      2.00000
     26       4.2969      2.00000
     27       4.2969      2.00000
     28       4.3370      2.00000
     29       4.3370      2.00000
     30       4.4839      2.00000
     31       4.4839      2.00000
     32       4.6239      2.00000
     33       4.7352      2.00000
     34       4.7352      2.00000
     35       4.7712      2.00000
     36       4.7831      2.00000
[...]
     18       3.7624      2.00000
     19       3.8606      2.00000
     20       3.9057      2.00000
     21       3.9309      2.00000
     22       4.1439      2.00000
     23       4.1723      2.00000
     24       4.2996      2.00000
     25       4.3280      2.00000
     26       4.3676      2.00000
     27       4.3954      2.00000
     28       4.4826      2.00000
     29       4.5610      2.00000
     30       4.5940      2.00000
     31       4.6703      2.00000
     32       4.6857      2.00000
     33       4.7772      2.00000
     34       4.9162      2.00000
     35       4.9826      2.00000
     36       5.0464      2.00000
     37       5.1106      2.00000
     38       5.1133      2.00000
     39       5.2257      2.00000
     40       5.2629      2.00000
     41       5.3688      2.00000
     42       5.3905      2.00000
     43       5.4335      2.00000
     44       5.4888      2.00000
     45       5.5633      2.00000
     46       5.7749      2.00000
     47       5.8551      2.00000
     48       5.8662      2.00000
     49       5.9292      2.00000
     50       6.0046      2.00000
     51       6.1130      2.00000
     52       6.1836      1.99999
     53       6.4011      1.80870
     54       6.4726      1.23327
     55       6.4914      1.02408
     56       6.5464      0.45441
     57       6.5761      0.24306
     58       6.6322      0.04992
     59       6.7447      0.00038
     60       6.7802      0.00005
     61       7.0308      0.00000
     62       7.0620      0.00000
     63       7.2020      0.00000
     64       7.2985      0.00000
     65       7.2987      0.00000
     66       7.3240      0.00000
     67       7.4858      0.00000
     68       7.5242      0.00000

 k-point     3 :       0.5000    0.5000   -0.0000
  band No.  band energies     occupation 
      1       1.0285      2.00000
      2       1.1584      2.00000
      3       1.8691      2.00000
      4       1.9846      2.00000
      5       2.6003      2.00000
      6       2.6541      2.00000
      7       2.9625      2.00000
      8       3.0688      2.00000
      9       3.1254      2.00000
     10       3.1668      2.00000
     11       3.2498      2.00000
     12       3.2778      2.00000
     13       3.3380      2.00000
     14       3.3727      2.00000
     15       3.4988      2.00000
     16       3.5511      2.00000
     17       3.6131      2.00000
     18       3.8070      2.00000
     19       3.9139      2.00000
     20       4.0036      2.00000
     21       4.1102      2.00000
     22       4.1104      2.00000
     23       4.1755      2.00000
     24       4.2684      2.00000
     25       4.3124      2.00000
     26       4.4138      2.00000
     27       4.4167      2.00000
     28       4.4457      2.00000
     29       4.4759      2.00000
     30       4.6457      2.00000
     31       4.7262      2.00000
     32       4.7313      2.00000
     33       4.8093      2.00000
     34       4.9589      2.00000
     35       5.0884      2.00000
     36       5.0970      2.00000
     37       5.1197      2.00000
     38       5.1658      2.00000
     39       5.2521      2.00000
     40       5.3001      2.00000
     41       5.3092      2.00000
     42       5.3451      2.00000
     43       5.4617      2.00000
     44       5.6737      2.00000
     45       5.6979      2.00000
     46       5.7334      2.00000
     47       5.8254      2.00000
     48       5.9413      2.00000
     49       6.0187      2.00000
     50       6.0715      2.00000
     51       6.1791      1.99999
     52       6.3337      1.97616
     53       6.3582      1.94440
     54       6.4635      1.32891
     55       6.4988      0.94080
     56       6.6685      0.01337
     57       6.7909      0.00003
     58       6.7930      0.00002
     59       6.9077      0.00000
     60       7.0303      0.00000
     61       7.0786      0.00000
     62       7.0963      0.00000
     63       7.1167      0.00000
     64       7.2667      0.00000
     65       7.2927      0.00000
     66       7.3815      0.00000
     67       7.4915      0.00000
     68       7.5492      0.00000

 k-point     4 :       0.5000    0.5000    0.5000
  band No.  band energies     occupation 
      1       1.0043      2.00000
      2       1.3261      2.00000
      3       2.3260      2.00000
      4       2.3260      2.00000
      5       2.5682      2.00000
      6       2.5923      2.00000
      7       2.5923      2.00000
      8       2.6787      2.00000
      9       2.8856      2.00000
     10       2.8856      2.00000
     11       3.1673      2.00000
     12       3.3299      2.00000
     13       3.3299      2.00000
     14       3.3515      2.00000
     15       3.3515      2.00000
     16       3.6519      2.00000
     17       3.7274      2.00000
     18       3.8280      2.00000
     19       3.8280      2.00000
     20       3.9787      2.00000
     21       3.9787      2.00000
     22       4.1304      2.00000
     23       4.1304      2.00000
     24       4.4097      2.00000
     25       4.4215      2.00000
     26       4.4215      2.00000
     27       4.4762      2.00000
     28       4.5846      2.00000
     29       4.5846      2.00000
     30       4.6425      2.00000
     31       4.6425      2.00000
     32       4.6580      2.00000
     33       4.7127      2.00000
     34       4.8583      2.00000
     35       5.1600      2.00000
     36       5.1870      2.00000
     37       5.1870      2.00000
     38       5.2295      2.00000
     39       5.2979      2.00000
     40       5.2979      2.00000
     41       5.6522      2.00000
     42       5.6522      2.00000
     43       5.6618      2.00000
     44       5.7381      2.00000
     45       5.7899      2.00000
     46       5.7899      2.00000
     47       5.8071      2.00000
     48       5.9071      2.00000
     49       5.9071      2.00000
     50       5.9437      2.00000
     51       6.0911      2.00000
     52       6.0911      2.00000
     53       6.1423      2.00000
     54       6.1423      2.00000
     55       6.3634      1.93431
     56       6.4501      1.46103
     57       6.8165      0.00000
     58       6.8165      0.00000
     59       6.9401      0.00000
     60       6.9401      0.00000
     61       7.0057      0.00000
     62       7.1893      0.00000
     63       7.1893      0.00000
     64       7.3775      0.00000
     65       7.3797      0.00000
     66       7.3797      0.00000
     67       7.4158      0.00000
     68       7.4816      0.00000


--------------------------------------------------------------------------------------------------------


 soft charge-density along one line, spin component           1
         0         1         2         3         4         5         6         7         8         9
 total charge-density along one line
 
 pseudopotential strength for first ion, spin component:           1
 -1.216   0.017  -0.017   0.006  -0.002  -1.737   0.017  -0.017
  0.017  -1.218   0.003   0.016  -0.007   0.017  -1.740   0.003
 -0.017   0.003  -1.215   0.006   0.006  -0.017   0.003  -1.736
  0.006   0.016   0.006  -1.224   0.007   0.006   0.015   0.005
 -0.002  -0.007   0.006   0.007  -1.221  -0.002  -0.006   0.005
 -1.737   0.017  -0.017   0.006  -0.002  -2.208   0.016  -0.016
  0.017  -1.740   0.003   0.015  -0.006   0.016  -2.211   0.002
 -0.017   0.003  -1.736   0.005   0.005  -0.016   0.002  -2.207
  0.006   0.015   0.005  -1.745   0.006   0.005   0.015   0.005
 -0.002  -0.006   0.005   0.006  -1.742  -0.002  -0.006   0.005
 -0.002  -0.007  -0.000  -0.008   0.002  -0.002  -0.006  -0.000
 -0.003   0.020  -0.000   0.020  -0.005  -0.002   0.019   0.000
  0.014  -0.015   0.011  -0.000   0.011   0.014  -0.015   0.011
 -0.000  -0.010  -0.008   0.007   0.003  -0.000  -0.009  -0.008
 -0.018  -0.000  -0.008  -0.009   0.007  -0.017  -0.000  -0.008
 -0.014   0.014  -0.012   0.000  -0.016  -0.014   0.014  -0.012
  0.000   0.015   0.010  -0.010  -0.002  -0.000   0.014   0.010
  0.020   0.000   0.008   0.010  -0.010   0.020  -0.000   0.008
 total augmentation occupancy for first ion, spin component:           1
  0.655   0.157   0.047   0.046  -0.060  -1.048  -0.293  -0.066  -0.123   0.080  -0.115  -0.002  -0.003  -0.006  -0.029   0.001
  0.157   0.585  -0.011   0.029  -0.051  -0.294  -0.970  -0.008  -0.071   0.039   0.001   0.001  -0.014   0.011   0.012  -0.002
  0.047  -0.011   0.581   0.008   0.055  -0.063  -0.010  -0.975   0.020  -0.073   0.078   0.002   0.053   0.071   0.010   0.003
  0.046   0.029   0.008   0.476  -0.079  -0.122  -0.071   0.020  -0.740   0.170   0.002   0.001   0.000  -0.030   0.035   0.000
 -0.060  -0.051   0.055  -0.079   0.580   0.079   0.041  -0.070   0.168  -0.995   0.094   0.001   0.044   0.010  -0.025   0.001
 -1.048  -0.294  -0.063  -0.122   0.079   2.169   0.337   0.066   0.217  -0.114   0.084   0.006   0.055  -0.026  -0.054  -0.004
 -0.293  -0.970  -0.010  -0.071   0.041   0.337   2.163   0.110   0.062  -0.069   0.133  -0.004  -0.024   0.017  -0.017   0.007
 -0.066  -0.008  -0.975   0.020  -0.070   0.066   0.110   2.057  -0.004   0.138  -0.102  -0.003   0.006  -0.055  -0.002  -0.004
 -0.123  -0.071   0.020  -0.740   0.168   0.217   0.062  -0.004   1.872  -0.098   0.114  -0.002  -0.012   0.039  -0.002  -0.001
  0.080   0.039  -0.073   0.170  -0.995  -0.114  -0.069   0.138  -0.098   2.212  -0.126  -0.002  -0.060   0.016  -0.013  -0.003
 -0.115   0.001   0.078   0.002   0.094   0.084   0.133  -0.102   0.114  -0.126   2.018   0.041  -0.008   0.012  -0.003   0.004
 -0.002   0.001   0.002   0.001   0.001   0.006  -0.004  -0.003  -0.002  -0.002   0.041   0.001   0.002  -0.001  -0.000   0.000
 -0.003  -0.014   0.053   0.000   0.044   0.055  -0.024   0.006  -0.012  -0.060  -0.008   0.002   0.381  -0.004   0.036   0.009
 -0.006   0.011   0.071  -0.030   0.010  -0.026   0.017  -0.055   0.039   0.016   0.012  -0.001  -0.004   0.329  -0.005  -0.001
 -0.029   0.012   0.010   0.035  -0.025  -0.054  -0.017  -0.002  -0.002  -0.013  -0.003  -0.000   0.036  -0.005   0.336   0.002
  0.001  -0.002   0.003   0.000   0.001  -0.004   0.007  -0.004  -0.001  -0.003   0.004   0.000   0.009  -0.001   0.002   0.000
 -0.000   0.000   0.002  -0.001   0.001  -0.000  -0.000  -0.002   0.001  -0.003   0.002  -0.000  -0.001   0.009  -0.001  -0.000
 -0.003  -0.000  -0.001   0.000  -0.001   0.005  -0.001   0.003   0.002   0.001  -0.002   0.000   0.002  -0.001   0.010   0.000


------------------------ aborting loop because EDIFF is reached ----------------------------------------


    CHARGE:  cpu time    0.0380: real time    0.0380
    FORLOC:  cpu time    0.0088: real time    0.0088
    FORNL :  cpu time    0.5762: real time    0.5768
    STRESS:  cpu time    0.6227: real time    0.6233
    FORCOR:  cpu time    0.0381: real time    0.0381
    FORHAR:  cpu time    0.0141: real time    0.0141
    MIXING:  cpu time    0.0017: real time    0.0017
    OFIELD:  cpu time    0.0001: real time    0.0001

  FORCE on cell =-STRESS in cart. coord.  units (eV):
  Direction    XX          YY          ZZ          XY          YZ          ZX
  --------------------------------------------------------------------------------------
  Alpha Z   548.04204   548.04204   548.04204
  Ewald   -1744.51899 -1746.20240 -1747.59551    12.92813    11.39595    12.16205
  Hartree   224.37787   226.14096   227.59992   -13.53925   -11.93462   -12.73696
  E(xc)    -500.24546  -499.93779  -499.68320    -2.36265    -2.08263    -2.22265
  Local     280.77892   279.97611   279.31179     6.16488     5.43425     5.79958
  n-local  -115.50454  -116.82841  -116.21087    -4.27076    -3.09739    -3.35818
  augment   448.67735   448.56707   448.47586     0.83661     0.73495     0.78583
  Kinetic   857.82590   860.46119   860.77542    -0.12693     1.31812    -1.66574
  Fock        0.00000     0.00000     0.00000     0.00000     0.00000     0.00000
  -------------------------------------------------------------------------------------
  Total       0.12014     0.12258     0.12459    -0.01867    -0.01646    -0.01756
  in kB       0.73707     0.75199     0.76433    -0.11455    -0.10097    -0.10776
  external pressure =        0.75 kB  Pullay stress =        0.00 kB


 VOLUME and BASIS-vectors are now :
 -----------------------------------------------------------------------------
  energy-cutoff  :      267.88
  volume of cell :      261.16
      direct lattice vectors                 reciprocal lattice vectors
     6.581094405  0.786612515  0.740000469     0.157932789 -0.026552180 -0.024978790
     1.212543854  6.516079469  0.740000422    -0.016234710  0.159324270 -0.024978779
     1.212543928  1.136161525  6.458794789    -0.016234708 -0.015212033  0.160551412

  length of vectors
     6.669120146  6.669119497  6.669119576     0.162085545  0.162085558  0.162085556


 FORCES acting on ions
    electron-ion (+dipol)            ewald-force                    non-local-force                 convergence-correction
 -----------------------------------------------------------------------------------------------
   0.153E+02 0.278E+02 -.242E+02   -.159E+02 -.276E+02 0.252E+02   0.596E+00 -.145E+00 -.101E+01   -.332E-02 -.895E-02 0.163E-02
   -.214E+02 0.168E+02 0.292E+02   0.224E+02 -.174E+02 -.291E+02   -.978E+00 0.661E+00 -.826E-01   0.863E-03 -.338E-02 -.903E-02
   0.287E+02 -.233E+02 0.149E+02   -.286E+02 0.243E+02 -.156E+02   -.106E+00 -.973E+00 0.665E+00   -.915E-02 0.146E-02 -.282E-02
   -.153E+02 -.278E+02 0.242E+02   0.159E+02 0.276E+02 -.252E+02   -.596E+00 0.145E+00 0.101E+01   0.332E-02 0.895E-02 -.163E-02
   0.214E+02 -.168E+02 -.292E+02   -.224E+02 0.174E+02 0.291E+02   0.978E+00 -.661E+00 0.826E-01   -.863E-03 0.338E-02 0.903E-02
   -.287E+02 0.233E+02 -.149E+02   0.286E+02 -.243E+02 0.156E+02   0.106E+00 0.973E+00 -.665E+00   0.915E-02 -.146E-02 0.282E-02
   0.598E+01 0.560E+01 0.527E+01   -.558E+01 -.523E+01 -.492E+01   -.382E+00 -.357E+00 -.336E+00   -.110E-01 -.103E-01 -.970E-02
   -.598E+01 -.560E+01 -.527E+01   0.558E+01 0.523E+01 0.492E+01   0.382E+00 0.357E+00 0.336E+00   0.110E-01 0.103E-01 0.970E-02
   -.124E-12 -.574E-13 -.670E-13   -.386E-13 0.179E-13 0.125E-13   -.133E-21 -.137E-22 -.115E-21   0.456E-13 0.375E-12 -.252E-13
   -.183E+02 -.514E+00 -.255E+02   0.188E+02 0.307E+00 0.252E+02   -.516E+00 0.214E+00 0.232E+00   0.101E-01 -.776E-03 0.108E-02
   -.266E+02 -.166E+02 0.104E+01   0.264E+02 0.172E+02 -.123E+01   0.210E+00 -.530E+00 0.200E+00   0.168E-02 0.100E-01 -.840E-03
   -.170E+01 -.265E+02 -.167E+02   0.153E+01 0.263E+02 0.172E+02   0.180E+00 0.199E+00 -.542E+00   -.115E-03 0.170E-02 0.101E-01
   0.183E+02 0.514E+00 0.255E+02   -.188E+02 -.307E+00 -.252E+02   0.516E+00 -.214E+00 -.232E+00   -.101E-01 0.776E-03 -.108E-02
   0.266E+02 0.166E+02 -.104E+01   -.264E+02 -.172E+02 0.123E+01   -.210E+00 0.530E+00 -.200E+00   -.168E-02 -.100E-01 0.840E-03
   0.170E+01 0.265E+02 0.167E+02   -.153E+01 -.263E+02 -.172E+02   -.180E+00 -.199E+00 0.542E+00   0.115E-03 -.170E-02 -.101E-01
   0.223E+02 0.209E+02 0.196E+02   -.241E+02 -.226E+02 -.213E+02   0.188E+01 0.176E+01 0.166E+01   -.853E-02 -.799E-02 -.752E-02
   -.223E+02 -.209E+02 -.196E+02   0.241E+02 0.226E+02 0.213E+02   -.188E+01 -.176E+01 -.166E+01   0.853E-02 0.799E-02 0.752E-02
   0.290E-14 -.109E-12 0.327E-12   0.176E-13 -.883E-14 -.915E-14   0.199E-22 -.318E-22 0.826E-23   -.701E-12 0.152E-12 0.102E-12
   -.389E-13 -.465E-12 -.227E-11   -.220E-14 -.442E-13 0.622E-13   -.929E-23 0.327E-22 0.626E-23   -.556E-12 0.500E-12 -.406E-12
   0.427E-13 0.354E-12 -.405E-13   0.265E-13 -.145E-13 0.160E-13   -.130E-22 0.282E-22 0.506E-22   0.178E-12 -.693E-12 -.515E-13
 -----------------------------------------------------------------------------------------------
   0.216E-11 0.812E-12 -.652E-11   -.185E-13 -.362E-14 0.194E-13   -.444E-15 -.666E-15 0.222E-15   -.731E-12 -.163E-12 -.107E-12
 
 
 POSITION                                       TOTAL-FORCE (eV/Angst)
 -----------------------------------------------------------------------------------
      4.29964      4.76013      2.08800        -0.001523     -0.002818     -0.005544
      2.64886      4.13628      4.62388        -0.005792     -0.001149     -0.002475
      5.02943      2.32700      3.84647        -0.002911     -0.005615     -0.000995
      4.70654      3.67872      5.85080         0.001523      0.002818      0.005544
      6.35732      4.30258      3.31492         0.005792      0.001149      0.002475
      3.97675      6.11185      4.09232         0.002911      0.005615      0.000995
      1.36403      1.27811      1.20237         0.000714      0.000669      0.000629
      7.64215      7.16075      6.73643        -0.000714     -0.000669     -0.000629
      0.00000     -0.00000      0.00000         0.000000     -0.000000     -0.000000
      5.81858      7.01787      3.05398         0.003046      0.006657      0.002072
      3.84715      5.58041      6.81848         0.002667      0.002879      0.006518
      7.38109      3.37471      5.15402         0.006841      0.002227      0.002476
      3.18761      1.42098      4.88481        -0.003046     -0.006657     -0.002072
      5.15903      2.85845      1.12032        -0.002667     -0.002879     -0.006518
      1.62509      5.06414      2.78477        -0.006841     -0.002227     -0.002476
      6.26080      5.86641      5.51879        -0.000978     -0.000917     -0.000862
      2.74539      2.57244      2.42001         0.000978      0.000917      0.000862
      0.60627      0.56808      3.22940         0.000000     -0.000000     -0.000000
      3.29055      0.39331      0.37000         0.000000     -0.000000     -0.000000
      0.60627      3.25804      0.37000         0.000000     -0.000000     -0.000000
 -----------------------------------------------------------------------------------
    total drift:                                0.000000      0.000000     -0.000000


--------------------------------------------------------------------------------------------------------



  FREE ENERGIE OF THE ION-ELECTRON SYSTEM (eV)
  ---------------------------------------------------
  free  energy   TOTEN  =      -169.80851424 eV

  energy  without entropy=     -169.66389619  energy(sigma->0) =     -169.73620521
 
 d Force =-0.1092683E-04[-0.168E-04,-0.502E-05]  d Energy = 0.6146049E-04-0.724E-04
 d Force = 0.1682852E-01[ 0.166E-01, 0.171E-01]  d Ewald  =-0.9183023E+00 0.935E+00


--------------------------------------------------------------------------------------------------------


    POTLOK:  cpu time    0.0488: real time    0.0488


--------------------------------------------------------------------------------------------------------




--------------------------------------------------------------------------------------------------------


  
 reached required accuracy - stopping structural energy minimisation
     LOOP+:  cpu time    7.8757: real time    7.8848
    4ORBIT:  cpu time    0.0000: real time    0.0000

 total amount of memory used by VASP MPI-rank0    42418. kBytes
=======================================================================

   base      :      30000. kBytes
   nonl-proj :       3844. kBytes
   fftplans  :       1619. kBytes
   grid      :       3411. kBytes
   one-center:        311. kBytes
   wavefun   :       3233. kBytes
 
  
  
 General timing and accounting informations for this job:
 ========================================================
  
                  Total CPU time used (sec):      828.645
                            User time (sec):      822.500
                          System time (sec):        6.145
                         Elapsed time (sec):      830.426
  
                   Maximum memory used (kb):      191368.
                   Average memory used (kb):           0.
  
                          Minor page faults:       773974
                          Major page faults:            0
                 Voluntary context switches:          690
