<?xml version="1.0" encoding="ISO-8859-1"?>
<modeling>
 <generator>
  <i name="program" type="string">vasp </i>
  <i name="version" type="string">5.4.4.18Apr17-6-g9f103f2a35  </i>
  <i name="subversion" type="string">(build Jul 11 2019 11:52:51) complex            parallel </i>
  <i name="platform" type="string">LinuxIFC </i>
  <i name="date" type="string">2023 11 29 </i>
  <i name="time" type="string">16:52:09 </i>
 </generator>
 <incar>
  <i type="int" name="ISTART">     0</i>
  <i type="string" name="PREC">normal</i>
  <i type="int" name="IBRION">     2</i>
  <i name="EDIFF">      0.00001000</i>
  <i name="EDIFFG">     -0.01000000</i>
  <i type="int" name="NSW">   500</i>
  <i type="int" name="ISIF">     3</i>
  <i name="POTIM">      0.50000000</i>
  <i type="int" name="ISMEAR">     0</i>
  <i name="SIGMA">      0.10000000</i>
  <i name="PSTRESS">      0.00000000</i>
  <i type="logical" name="LWAVE"> F  </i>
  <i type="logical" name="LCHARG"> F  </i>
  <v type="int" name="KPOINT_BSE">    -1     0     0     0</v>
 </incar>
 <structure name="primitive_cell" >
  <crystal>
   <varray name="basis" >
    <v>       6.38786700       0.00000000       0.00000000 </v>
    <v>       0.41503900       6.37436900       0.00000000 </v>
    <v>       0.41503900       0.38889400       6.36249500 </v>
   </varray>
   <i name="volume">    259.07202494 </i>
   <varray name="rec_basis" >
    <v>       0.15654678      -0.01019285      -0.00958886 </v>
    <v>       0.00000000       0.15687827      -0.00958885 </v>
    <v>       0.00000000       0.00000000       0.15717105 </v>
   </varray>
  </crystal>
  <varray name="positions" >
   <v>      -0.49672400      -0.36718000       0.26374100 </v>
   <v>       0.36718000      -0.26374100       0.49672400 </v>
   <v>      -0.26374100       0.49672400       0.36718000 </v>
   <v>       0.37197900       0.37197900       0.37197900 </v>
   <v>       0.30672800      -0.37415900      -0.01471000 </v>
   <v>      -0.37415900      -0.01471000       0.30672800 </v>
   <v>      -0.37197900      -0.37197900      -0.37197900 </v>
   <v>      -0.30672800       0.37415900       0.01471000 </v>
   <v>      -0.50000000       0.00000000       0.00000000 </v>
   <v>      -0.36718000       0.26374100      -0.49672400 </v>
   <v>       0.26374100      -0.49672400      -0.36718000 </v>
   <v>       0.01471000      -0.30672800       0.37415900 </v>
   <v>       0.21885600       0.21885600       0.21885600 </v>
   <v>       0.49672400       0.36718000      -0.26374100 </v>
   <v>      -0.21885600      -0.21885600      -0.21885600 </v>
   <v>       0.00000000      -0.50000000       0.00000000 </v>
   <v>       0.37415900       0.01471000      -0.30672800 </v>
   <v>       0.00000000       0.00000000      -0.50000000 </v>
   <v>       0.00000000       0.00000000       0.00000000 </v>
   <v>      -0.01471000       0.30672800      -0.37415900 </v>
  </varray>
 </structure>
 <varray name="primitive_index" >
  <v type="int" >        1 </v>
  <v type="int" >        6 </v>
  <v type="int" >        5 </v>
  <v type="int" >       17 </v>
  <v type="int" >       11 </v>
  <v type="int" >       10 </v>
  <v type="int" >       16 </v>
  <v type="int" >       14 </v>
  <v type="int" >       19 </v>
  <v type="int" >        3 </v>
  <v type="int" >        2 </v>
  <v type="int" >       15 </v>
  <v type="int" >        7 </v>
  <v type="int" >        4 </v>
  <v type="int" >        8 </v>
  <v type="int" >       20 </v>
  <v type="int" >       13 </v>
  <v type="int" >       18 </v>
  <v type="int" >        9 </v>
  <v type="int" >       12 </v>
 </varray>
 <kpoints>
  <generation param="Gamma">
   <v type="int" name="divisions">       2        2        2 </v>
   <v name="usershift">      0.00000000       0.00000000       0.00000000 </v>
   <v name="genvec1">      0.50000000      -0.00000000       0.00000000 </v>
   <v name="genvec2">      0.00000000       0.50000000      -0.00000000 </v>
   <v name="genvec3">      0.00000000       0.00000000       0.50000000 </v>
   <v name="shift">      0.00000000       0.00000000       0.00000000 </v>
  </generation>
  <varray name="kpointlist" >
   <v>       0.00000000       0.00000000       0.00000000 </v>
   <v>       0.50000000      -0.00000000      -0.00000000 </v>
   <v>       0.50000000       0.50000000      -0.00000000 </v>
   <v>       0.50000000       0.50000000       0.50000000 </v>
  </varray>
  <varray name="weights" >
   <v>       0.12500000 </v>
   <v>       0.37500000 </v>
   <v>       0.37500000 </v>
   <v>       0.12500000 </v>
  </varray>
 </kpoints>
 <parameters>
  <separator name="general" >
   <i type="string" name="SYSTEM">unknown system</i>
   <i type="logical" name="LCOMPAT"> F  </i>
  </separator>
  <separator name="electronic" >
   <i type="string" name="PREC">normal</i>
   <i name="ENMAX">    267.88200000</i>
   <i name="ENAUG">    511.36800000</i>
   <i name="EDIFF">      0.00001000</i>
   <i type="int" name="IALGO">    38</i>
   <i type="int" name="IWAVPR">    11</i>
   <i type="int" name="NBANDS">    68</i>
   <i name="NELECT">    109.00000000</i>
   <i type="int" name="TURBO">     0</i>
   <i type="int" name="IRESTART">     0</i>
   <i type="int" name="NREBOOT">     0</i>
   <i type="int" name="NMIN">     0</i>
   <i name="EREF">      0.00000000</i>
   <separator name="electronic smearing" >
    <i type="int" name="ISMEAR">     0</i>
    <i name="SIGMA">      0.10000000</i>
    <i name="KSPACING">      0.50000000</i>
    <i type="logical" name="KGAMMA"> T  </i>
   </separator>
   <separator name="electronic projectors" >
    <i type="logical" name="LREAL"> F  </i>
    <v name="ROPT">      0.00000000      0.00000000</v>
    <i type="int" name="LMAXPAW">  -100</i>
    <i type="int" name="LMAXMIX">     2</i>
    <i type="logical" name="NLSPLINE"> F  </i>
   </separator>
   <separator name="electronic startup" >
    <i type="int" name="ISTART">     0</i>
    <i type="int" name="ICHARG">     2</i>
    <i type="int" name="INIWAV">     1</i>
   </separator>
   <separator name="electronic spin" >
    <i type="int" name="ISPIN">     1</i>
    <i type="logical" name="LNONCOLLINEAR"> F  </i>
    <v name="MAGMOM">      1.00000000      1.00000000      1.00000000      1.00000000      1.00000000      1.00000000      1.00000000      1.00000000      1.00000000      1.00000000      1.00000000      1.00000000      1.00000000      1.00000000      1.00000000      1.00000000      1.00000000      1.00000000      1.00000000      1.00000000
</v>
    <i name="NUPDOWN">     -1.00000000</i>
    <i type="logical" name="LSORBIT"> F  </i>
    <v name="SAXIS">      0.00000000      0.00000000      1.00000000</v>
    <i type="logical" name="LSPIRAL"> F  </i>
    <v name="QSPIRAL">      0.00000000      0.00000000      0.00000000</v>
    <i type="logical" name="LZEROZ"> F  </i>
   </separator>
   <separator name="electronic exchange-correlation" >
    <i type="logical" name="LASPH"> F  </i>
    <i type="logical" name="LMETAGGA"> F  </i>
   </separator>
   <separator name="electronic convergence" >
    <i type="int" name="NELM">    60</i>
    <i type="int" name="NELMDL">    -5</i>
    <i type="int" name="NELMIN">     2</i>
    <i name="ENINI">    267.88200000</i>
    <separator name="electronic convergence detail" >
     <i type="logical" name="LDIAG"> T  </i>
     <i type="logical" name="LSUBROT"> F  </i>
     <i name="WEIMIN">      0.00100000</i>
     <i name="EBREAK">      0.00000004</i>
     <i name="DEPER">      0.30000000</i>
     <i type="int" name="NRMM">     4</i>
     <i name="TIME">      0.40000000</i>
    </separator>
   </separator>
   <separator name="electronic mixer" >
    <i name="AMIX">      0.40000000</i>
    <i name="BMIX">      1.00000000</i>
    <i name="AMIN">      0.10000000</i>
    <i name="AMIX_MAG">      1.60000000</i>
    <i name="BMIX_MAG">      1.00000000</i>
    <separator name="electronic mixer details" >
     <i type="int" name="IMIX">     4</i>
     <i type="logical" name="MIXFIRST"> F  </i>
     <i type="int" name="MAXMIX">   -45</i>
     <i name="WC">    100.00000000</i>
     <i type="int" name="INIMIX">     1</i>
     <i type="int" name="MIXPRE">     1</i>
     <i type="int" name="MREMOVE">     5</i>
    </separator>
   </separator>
   <separator name="electronic dipolcorrection" >
    <i type="logical" name="LDIPOL"> F  </i>
    <i type="logical" name="LMONO"> F  </i>
    <i type="int" name="IDIPOL">     0</i>
    <i name="EPSILON">      1.00000000</i>
    <v name="DIPOL">   -100.00000000   -100.00000000   -100.00000000</v>
    <i name="EFIELD">      0.00000000</i>
   </separator>
  </separator>
  <separator name="grids" >
   <i type="int" name="NGX">    28</i>
   <i type="int" name="NGY">    28</i>
   <i type="int" name="NGZ">    28</i>
   <i type="int" name="NGXF">    56</i>
   <i type="int" name="NGYF">    56</i>
   <i type="int" name="NGZF">    56</i>
   <i type="logical" name="ADDGRID"> F  </i>
  </separator>
  <separator name="ionic" >
   <i type="int" name="NSW">   500</i>
   <i type="int" name="IBRION">     2</i>
   <i type="int" name="MDALGO">     0</i>
   <i type="int" name="ISIF">     3</i>
   <i name="PSTRESS">      0.00000000</i>
   <i name="EDIFFG">     -0.01000000</i>
   <i type="int" name="NFREE">     1</i>
   <i name="POTIM">      0.50000000</i>
   <i name="SMASS">     -3.00000000</i>
   <i name="SCALEE">      1.00000000</i>
  </separator>
  <separator name="ionic md" >
   <i name="TEBEG">      0.00010000</i>
   <i name="TEEND">      0.00010000</i>
   <i type="int" name="NBLOCK">     1</i>
   <i type="int" name="KBLOCK">   500</i>
   <i type="int" name="NPACO">   256</i>
   <i name="APACO">     16.00000000</i>
  </separator>
  <separator name="symmetry" >
   <i type="int" name="ISYM">     2</i>
   <i name="SYMPREC">      0.00001000</i>
  </separator>
  <separator name="dos" >
   <i type="int" name="LORBIT">     0</i>
   <v name="RWIGS">     -1.00000000     -1.00000000</v>
   <i type="int" name="NEDOS">   301</i>
   <i name="EMIN">     10.00000000</i>
   <i name="EMAX">    -10.00000000</i>
   <i name="EFERMI">      0.00000000</i>
  </separator>
  <separator name="writing" >
   <i type="int" name="NWRITE">     2</i>
   <i type="logical" name="LWAVE"> F  </i>
   <i type="logical" name="LDOWNSAMPLE"> F  </i>
   <i type="logical" name="LCHARG"> F  </i>
   <i type="logical" name="LPARD"> F  </i>
   <i type="logical" name="LVTOT"> F  </i>
   <i type="logical" name="LVHAR"> F  </i>
   <i type="logical" name="LELF"> F  </i>
   <i type="logical" name="LOPTICS"> F  </i>
   <v name="STM">      0.00000000      0.00000000      0.00000000      0.00000000      0.00000000      0.00000000      0.00000000</v>
  </separator>
  <separator name="performance" >
   <i type="int" name="NPAR">     4</i>
   <i type="int" name="NSIM">     4</i>
   <i type="int" name="NBLK">    -1</i>
   <i type="logical" name="LPLANE"> T  </i>
   <i type="logical" name="LSCALAPACK"> T  </i>
   <i type="logical" name="LSCAAWARE"> F  </i>
   <i type="logical" name="LSCALU"> F  </i>
   <i type="logical" name="LASYNC"> F  </i>
   <i type="logical" name="LORBITALREAL"> F  </i>
  </separator>
  <separator name="miscellaneous" >
   <i type="int" name="IDIOT">     3</i>
   <i type="int" name="ISPECIAL">     0</i>
   <i type="logical" name="LMUSIC"> F  </i>
   <v name="POMASS">     50.94100000     55.84700000</v>
   <v name="DARWINR">      0.00000000      0.00000000</v>
   <v name="DARWINV">      1.00000000      1.00000000</v>
   <i type="logical" name="LCORR"> T  </i>
  </separator>
  <i type="logical" name="GGA_COMPAT"> T  </i>
  <i type="logical" name="LBERRY"> F  </i>
  <i type="int" name="ICORELEVEL">     0</i>
  <i type="logical" name="LDAU"> F  </i>
  <i type="int" name="I_CONSTRAINED_M">     0</i>
  <separator name="electronic exchange-correlation" >
   <i type="string" name="GGA">--</i>
   <i type="int" name="VOSKOWN">     0</i>
   <i type="logical" name="LHFCALC"> F  </i>
   <i type="string" name="PRECFOCK"></i>
   <i type="logical" name="LSYMGRAD"> F  </i>
   <i type="logical" name="LHFONE"> F  </i>
   <i type="logical" name="LRHFCALC"> F  </i>
   <i type="logical" name="LTHOMAS"> F  </i>
   <i type="logical" name="LMODELHF"> F  </i>
   <i name="ENCUT4O">     -1.00000000</i>
   <i type="int" name="EXXOEP">     0</i>
   <i type="int" name="FOURORBIT">     0</i>
   <i name="AEXX">      0.00000000</i>
   <i name="HFALPHA">      0.00000000</i>
   <i name="MCALPHA">      0.00000000</i>
   <i name="ALDAX">      1.00000000</i>
   <i name="AGGAX">      1.00000000</i>
   <i name="ALDAC">      1.00000000</i>
   <i name="AGGAC">      1.00000000</i>
   <i type="int" name="NKREDX">     1</i>
   <i type="int" name="NKREDY">     1</i>
   <i type="int" name="NKREDZ">     1</i>
   <i type="logical" name="SHIFTRED"> F  </i>
   <i type="logical" name="ODDONLY"> F  </i>
   <i type="logical" name="EVENONLY"> F  </i>
   <i type="int" name="LMAXFOCK">     0</i>
   <i type="int" name="NMAXFOCKAE">     0</i>
   <i type="logical" name="LFOCKAEDFT"> F  </i>
   <i name="HFSCREEN">      0.00000000</i>
   <i name="HFSCREENC">      0.00000000</i>
   <i type="int" name="NBANDSGWLOW">     0</i>
  </separator>
  <separator name="vdW DFT" >
   <i type="logical" name="LUSE_VDW"> F  </i>
   <i name="Zab_VDW">     -0.84910000</i>
   <i name="PARAM1">      0.12340000</i>
   <i name="PARAM2">      1.00000000</i>
   <i name="PARAM3">      0.00000000</i>
  </separator>
  <separator name="model GW" >
   <i type="int" name="MODEL_GW">     0</i>
   <i name="MODEL_EPS0">      7.77216075</i>
   <i name="MODEL_ALPHA">      1.00000000</i>
  </separator>
  <separator name="linear response parameters" >
   <i type="logical" name="LEPSILON"> F  </i>
   <i type="logical" name="LRPA"> F  </i>
   <i type="logical" name="LNABLA"> F  </i>
   <i type="logical" name="LVEL"> F  </i>
   <i type="int" name="KINTER">     0</i>
   <i name="CSHIFT">      0.10000000</i>
   <i name="OMEGAMAX">     -1.00000000</i>
   <i name="DEG_THRESHOLD">      0.00200000</i>
   <i name="RTIME">     -0.10000000</i>
   <i name="WPLASMAI">      0.00000000</i>
   <v name="DFIELD">      0.00000000      0.00000000      0.00000000</v>
   <v name="WPLASMA">      0.00000000      0.00000000      0.00000000      0.00000000      0.00000000      0.00000000      0.00000000      0.00000000      0.00000000</v>
  </separator>
  <separator name="orbital magnetization" >
   <i type="logical" name="NUCIND"> F  </i>
   <v name="MAGPOS">      0.00000000      0.00000000      0.00000000</v>
   <i type="logical" name="LNICSALL"> T  </i>
   <i type="logical" name="ORBITALMAG"> F  </i>
   <i type="logical" name="LMAGBLOCH"> F  </i>
   <i type="logical" name="LCHIMAG"> F  </i>
   <i type="logical" name="LGAUGE"> T  </i>
   <i type="int" name="MAGATOM">     0</i>
   <v name="MAGDIPOL">      0.00000000      0.00000000      0.00000000</v>
   <v name="AVECCONST">      0.00000000      0.00000000      0.00000000</v>
  </separator>
  <separator name="response functions" >
   <i type="logical" name="LADDER"> F  </i>
   <i type="logical" name="LRPAFORCE"> F  </i>
   <i type="logical" name="LFXC"> F  </i>
   <i type="logical" name="LHARTREE"> T  </i>
   <i type="int" name="IBSE">     0</i>
   <v type="int" name="KPOINT">    -1     0     0     0</v>
   <i type="logical" name="LTCTE"> F  </i>
   <i type="logical" name="LTETE"> F  </i>
   <i type="logical" name="LTRIPLET"> F  </i>
   <i type="logical" name="LFXCEPS"> F  </i>
   <i type="logical" name="LFXHEG"> F  </i>
   <i type="int" name="NATURALO">     2</i>
   <i type="logical" name="L2ORDER"> F  </i>
   <i type="logical" name="LMP2LT"> F  </i>
   <i type="logical" name="LUSEW"> F  </i>
   <i name="ENCUTGW">     -2.00000000</i>
   <i name="ENCUTGWSOFT">     -2.00000000</i>
   <i name="ENCUTLF">     -1.00000000</i>
   <i type="int" name="LMAXMP2">    -1</i>
   <i name="SCISSOR">      0.00000000</i>
   <i type="int" name="NOMEGA">     0</i>
   <i type="int" name="NOMEGAR">     0</i>
   <i type="int" name="NBANDSGW">    -1</i>
   <i type="int" name="NBANDSO">    -1</i>
   <i type="int" name="NBANDSV">    -1</i>
   <i type="int" name="NELM">     1</i>
   <i type="int" name="NELMHF">     1</i>
   <i type="int" name="DIM">     3</i>
   <i type="int" name="ANTIRES">     0</i>
   <i name="OMEGAMAX">    -30.00000000</i>
   <i name="OMEGAMIN">    -30.00000000</i>
   <i name="OMEGATL">   -200.00000000</i>
   <i type="int" name="OMEGAGRID">   140</i>
   <i name="CSHIFT">     -0.10000000</i>
   <i type="logical" name="SELFENERGY"> F  </i>
   <i type="logical" name="LSPECTRAL"> F  </i>
   <i type="logical" name="LSPECTRALGW"> F  </i>
   <i type="logical" name="LSINGLES"> F  </i>
   <i type="logical" name="LFERMIGW"> F  </i>
   <i type="logical" name="ODDONLYGW"> F  </i>
   <i type="logical" name="EVENONLYGW"> F  </i>
   <i type="int" name="NKREDLFX">     1</i>
   <i type="int" name="NKREDLFY">     1</i>
   <i type="int" name="NKREDLFZ">     1</i>
   <i type="int" name="MAXMEM">  2800</i>
   <i type="int" name="TELESCOPE">     0</i>
   <i type="int" name="TAUPAR">     1</i>
   <i type="int" name="OMEGAPAR">    -1</i>
   <i name="LAMBDA">      1.00000000</i>
  </separator>
  <separator name="External order field" >
   <i name="OFIELD_KAPPA">      0.00000000</i>
   <v name="OFIELD_K">      0.00000000      0.00000000      0.00000000</v>
   <i name="OFIELD_Q6_NEAR">      0.00000000</i>
   <i name="OFIELD_Q6_FAR">      0.00000000</i>
   <i name="OFIELD_A">      0.00000000</i>
  </separator>
 </parameters>
 <atominfo>
  <atoms>      20 </atoms>
  <types>       2 </types>
  <array name="atoms" >
   <dimension dim="1">ion</dimension>
   <field type="string">element</field>
   <field type="int">atomtype</field>
   <set>
    <rc><c>V </c><c>   1</c></rc>
    <rc><c>V </c><c>   1</c></rc>
    <rc><c>V </c><c>   1</c></rc>
    <rc><c>V </c><c>   1</c></rc>
    <rc><c>V </c><c>   1</c></rc>
    <rc><c>V </c><c>   1</c></rc>
    <rc><c>V </c><c>   1</c></rc>
    <rc><c>V </c><c>   1</c></rc>
    <rc><c>V </c><c>   1</c></rc>
    <rc><c>V </c><c>   1</c></rc>
    <rc><c>V </c><c>   1</c></rc>
    <rc><c>V </c><c>   1</c></rc>
    <rc><c>V </c><c>   1</c></rc>
    <rc><c>V </c><c>   1</c></rc>
    <rc><c>V </c><c>   1</c></rc>
    <rc><c>V </c><c>   1</c></rc>
    <rc><c>V </c><c>   1</c></rc>
    <rc><c>Fe</c><c>   2</c></rc>
    <rc><c>Fe</c><c>   2</c></rc>
    <rc><c>Fe</c><c>   2</c></rc>
   </set>
  </array>
  <array name="atomtypes" >
   <dimension dim="1">type</dimension>
   <field type="int">atomspertype</field>
   <field type="string">element</field>
   <field>mass</field>
   <field>valence</field>
   <field type="string">pseudopotential</field>
   <set>
    <rc><c>  17</c><c>V </c><c>     50.94100000</c><c>      5.00000000</c><c>  PAW_PBE V 08Apr2002                   </c></rc>
    <rc><c>   3</c><c>Fe</c><c>     55.84700000</c><c>      8.00000000</c><c>  PAW_PBE Fe 06Sep2000                  </c></rc>
   </set>
  </array>
 </atominfo>
 <structure name="initialpos" >
  <crystal>
   <varray name="basis" >
    <v>       6.38786700       0.00000000       0.00000000 </v>
    <v>       0.41503900       6.37436900       0.00000000 </v>
    <v>       0.41503900       0.38889400       6.36249500 </v>
   </varray>
   <i name="volume">    259.07202494 </i>
   <varray name="rec_basis" >
    <v>       0.15654678      -0.01019285      -0.00958886 </v>
    <v>       0.00000000       0.15687827      -0.00958885 </v>
    <v>       0.00000000       0.00000000       0.15717105 </v>
   </varray>
  </crystal>
  <varray name="positions" >
   <v>       0.50327600       0.63282000       0.26374100 </v>
   <v>       0.26374100       0.50327600       0.63282000 </v>
   <v>       0.63282000       0.26374100       0.50327600 </v>
   <v>       0.49672400       0.36718000       0.73625900 </v>
   <v>       0.73625900       0.49672400       0.36718000 </v>
   <v>       0.36718000       0.73625900       0.49672400 </v>
   <v>       0.21885600       0.21885600       0.21885600 </v>
   <v>       0.78114400       0.78114400       0.78114400 </v>
   <v>       0.00000000       0.00000000       0.00000000 </v>
   <v>       0.62584100       0.98529000       0.30672800 </v>
   <v>       0.30672800       0.62584100       0.98529000 </v>
   <v>       0.98529000       0.30672800       0.62584100 </v>
   <v>       0.37415900       0.01471000       0.69327200 </v>
   <v>       0.69327200       0.37415900       0.01471000 </v>
   <v>       0.01471000       0.69327200       0.37415900 </v>
   <v>       0.62802100       0.62802100       0.62802100 </v>
   <v>       0.37197900       0.37197900       0.37197900 </v>
   <v>       0.00000000       0.00000000       0.50000000 </v>
   <v>       0.50000000       0.00000000       0.00000000 </v>
   <v>       0.00000000       0.50000000       0.00000000 </v>
  </varray>
 </structure>
 <calculation>
  <scstep>
   <time name="dav">    0.75    0.75</time>
   <time name="total">    0.81    0.81</time>
   <energy>
    <i name="alphaZ">    552.45269307 </i>
    <i name="ewald">  -4958.67731341 </i>
    <i name="hartreedc">   -988.55683319 </i>
    <i name="XCdc">   -771.05980081 </i>
    <i name="pawpsdc">   5171.05454107 </i>
    <i name="pawaedc">  -4356.08836938 </i>
    <i name="eentropy">     -0.05302163 </i>
    <i name="bandstr">   1341.99606151 </i>
    <i name="atom">   4687.48422623 </i>
    <i name="e_fr_energy">    678.55218346 </i>
    <i name="e_wo_entrp">    678.60520509 </i>
    <i name="e_0_energy">    678.57869428 </i>
   </energy>
  </scstep>
  <scstep>
   <time name="dav">    0.76    0.76</time>
   <time name="total">    0.76    0.76</time>
   <energy>
    <i name="e_fr_energy">    -60.08678837 </i>
    <i name="e_wo_entrp">    -60.02363468 </i>
    <i name="e_0_energy">    -60.05521152 </i>
   </energy>
  </scstep>
  <scstep>
   <time name="dav">    1.11    1.11</time>
   <time name="total">    1.11    1.11</time>
   <energy>
    <i name="e_fr_energy">   -189.01269927 </i>
    <i name="e_wo_entrp">   -188.89181063 </i>
    <i name="e_0_energy">   -188.95225495 </i>
   </energy>
  </scstep>
  <scstep>
   <time name="dav">    1.07    1.07</time>
   <time name="total">    1.07    1.08</time>
   <energy>
    <i name="e_fr_energy">   -202.90350214 </i>
    <i name="e_wo_entrp">   -202.77009179 </i>
    <i name="e_0_energy">   -202.83679697 </i>
   </energy>
  </scstep>
  <scstep>
   <time name="dav">    1.10    1.10</time>
   <time name="total">    1.14    1.14</time>
   <energy>
    <i name="e_fr_energy">   -203.84383767 </i>
    <i name="e_wo_entrp">   -203.71234441 </i>
    <i name="e_0_energy">   -203.77809104 </i>
   </energy>
  </scstep>
  <scstep>
   <time name="dav">    1.22    1.23</time>
   <time name="total">    1.31    1.32</time>
   <energy>
    <i name="e_fr_energy">   -558.96746777 </i>
    <i name="e_wo_entrp">   -558.88224014 </i>
    <i name="e_0_energy">   -558.92485396 </i>
   </energy>
  </scstep>
  <scstep>
   <time name="dav">    0.85    0.85</time>
   <time name="total">    0.94    0.95</time>
   <energy>
    <i name="e_fr_energy">   -294.91103368 </i>
    <i name="e_wo_entrp">   -294.76176132 </i>
    <i name="e_0_energy">   -294.83639750 </i>
   </energy>
  </scstep>
  <scstep>
   <time name="dav">    1.11    1.12</time>
   <time name="total">    1.20    1.21</time>
   <energy>
    <i name="e_fr_energy">   -131.65122435 </i>
    <i name="e_wo_entrp">   -131.57690862 </i>
    <i name="e_0_energy">   -131.61406648 </i>
   </energy>
  </scstep>
  <scstep>
   <time name="dav">    1.14    1.15</time>
   <time name="total">    1.23    1.24</time>
   <energy>
    <i name="e_fr_energy">   -148.47886952 </i>
    <i name="e_wo_entrp">   -148.35545341 </i>
    <i name="e_0_energy">   -148.41716146 </i>
   </energy>
  </scstep>
  <scstep>
   <time name="dav">    1.09    1.09</time>
   <time name="total">    1.18    1.18</time>
   <energy>
    <i name="e_fr_energy">   -148.61018287 </i>
    <i name="e_wo_entrp">   -148.52212635 </i>
    <i name="e_0_energy">   -148.56615461 </i>
   </energy>
  </scstep>
  <scstep>
   <time name="dav">    1.21    1.21</time>
   <time name="total">    1.30    1.30</time>
   <energy>
    <i name="e_fr_energy">   -151.83462629 </i>
    <i name="e_wo_entrp">   -151.70838052 </i>
    <i name="e_0_energy">   -151.77150340 </i>
   </energy>
  </scstep>
  <scstep>
   <time name="dav">    1.21    1.22</time>
   <time name="total">    1.30    1.31</time>
   <energy>
    <i name="e_fr_energy">   -150.46926152 </i>
    <i name="e_wo_entrp">   -150.35223465 </i>
    <i name="e_0_energy">   -150.41074809 </i>
   </energy>
  </scstep>
  <scstep>
   <time name="dav">    1.25    1.25</time>
   <time name="total">    1.34    1.34</time>
   <energy>
    <i name="e_fr_energy">   -147.07801283 </i>
    <i name="e_wo_entrp">   -146.99013699 </i>
    <i name="e_0_energy">   -147.03407491 </i>
   </energy>
  </scstep>
  <scstep>
   <time name="dav">    1.06    1.06</time>
   <time name="total">    1.15    1.15</time>
   <energy>
    <i name="e_fr_energy">   -146.30834064 </i>
    <i name="e_wo_entrp">   -146.23037163 </i>
    <i name="e_0_energy">   -146.26935614 </i>
   </energy>
  </scstep>
  <scstep>
   <time name="dav">    1.23    1.24</time>
   <time name="total">    1.33    1.33</time>
   <energy>
    <i name="e_fr_energy">   -145.54969917 </i>
    <i name="e_wo_entrp">   -145.45400599 </i>
    <i name="e_0_energy">   -145.50185258 </i>
   </energy>
  </scstep>
  <scstep>
   <time name="dav">    1.09    1.09</time>
   <time name="total">    1.18    1.18</time>
   <energy>
    <i name="e_fr_energy">   -145.50814208 </i>
    <i name="e_wo_entrp">   -145.40958130 </i>
    <i name="e_0_energy">   -145.45886169 </i>
   </energy>
  </scstep>
  <scstep>
   <time name="dav">    1.06    1.06</time>
   <time name="total">    1.15    1.15</time>
   <energy>
    <i name="e_fr_energy">   -145.42836228 </i>
    <i name="e_wo_entrp">   -145.31925143 </i>
    <i name="e_0_energy">   -145.37380686 </i>
   </energy>
  </scstep>
  <scstep>
   <time name="dav">    1.08    1.08</time>
   <time name="total">    1.17    1.17</time>
   <energy>
    <i name="e_fr_energy">   -145.39845026 </i>
    <i name="e_wo_entrp">   -145.28422899 </i>
    <i name="e_0_energy">   -145.34133963 </i>
   </energy>
  </scstep>
  <scstep>
   <time name="dav">    1.01    1.02</time>
   <time name="total">    1.10    1.10</time>
   <energy>
    <i name="e_fr_energy">   -145.38900896 </i>
    <i name="e_wo_entrp">   -145.27833210 </i>
    <i name="e_0_energy">   -145.33367053 </i>
   </energy>
  </scstep>
  <scstep>
   <time name="dav">    1.03    1.04</time>
   <time name="total">    1.12    1.12</time>
   <energy>
    <i name="e_fr_energy">   -145.38550866 </i>
    <i name="e_wo_entrp">   -145.27360429 </i>
    <i name="e_0_energy">   -145.32955648 </i>
   </energy>
  </scstep>
  <scstep>
   <time name="dav">    1.13    1.14</time>
   <time name="total">    1.22    1.23</time>
   <energy>
    <i name="e_fr_energy">   -145.37787400 </i>
    <i name="e_wo_entrp">   -145.26681047 </i>
    <i name="e_0_energy">   -145.32234223 </i>
   </energy>
  </scstep>
  <scstep>
   <time name="dav">    0.89    0.89</time>
   <time name="total">    0.98    0.98</time>
   <energy>
    <i name="e_fr_energy">   -145.37684148 </i>
    <i name="e_wo_entrp">   -145.26594517 </i>
    <i name="e_0_energy">   -145.32139333 </i>
   </energy>
  </scstep>
  <scstep>
   <time name="dav">    1.10    1.11</time>
   <time name="total">    1.20    1.20</time>
   <energy>
    <i name="e_fr_energy">   -145.37535961 </i>
    <i name="e_wo_entrp">   -145.26439313 </i>
    <i name="e_0_energy">   -145.31987637 </i>
   </energy>
  </scstep>
  <scstep>
   <time name="dav">    1.18    1.18</time>
   <time name="total">    1.28    1.28</time>
   <energy>
    <i name="e_fr_energy">   -145.37488346 </i>
    <i name="e_wo_entrp">   -145.26426339 </i>
    <i name="e_0_energy">   -145.31957342 </i>
   </energy>
  </scstep>
  <scstep>
   <time name="dav">    1.15    1.15</time>
   <time name="total">    1.25    1.25</time>
   <energy>
    <i name="e_fr_energy">   -145.37478108 </i>
    <i name="e_wo_entrp">   -145.26427631 </i>
    <i name="e_0_energy">   -145.31952869 </i>
   </energy>
  </scstep>
  <scstep>
   <time name="dav">    0.98    0.98</time>
   <time name="total">    1.07    1.07</time>
   <energy>
    <i name="e_fr_energy">   -145.37476582 </i>
    <i name="e_wo_entrp">   -145.26422434 </i>
    <i name="e_0_energy">   -145.31949508 </i>
   </energy>
  </scstep>
  <scstep>
   <time name="dav">    0.66    0.66</time>
   <time name="total">    0.71    0.71</time>
   <energy>
    <i name="alphaZ">    552.45269307 </i>
    <i name="ewald">  -4958.67731341 </i>
    <i name="hartreedc">   -902.40468455 </i>
    <i name="XCdc">   -769.88166771 </i>
    <i name="pawpsdc">   9478.04156421 </i>
    <i name="pawaedc">  -8680.25499589 </i>
    <i name="eentropy">     -0.11055267 </i>
    <i name="bandstr">    447.97596433 </i>
    <i name="atom">   4687.48422623 </i>
    <i name="e_fr_energy">   -145.37476640 </i>
    <i name="e_wo_entrp">   -145.26421374 </i>
    <i name="e_0_energy">   -145.31949007 </i>
   </energy>
  </scstep>
  <structure>
   <crystal>
    <varray name="basis" >
     <v>       6.38786700       0.00000000       0.00000000 </v>
     <v>       0.41503900       6.37436900       0.00000000 </v>
     <v>       0.41503900       0.38889400       6.36249500 </v>
    </varray>
    <i name="volume">    259.07202494 </i>
    <varray name="rec_basis" >
     <v>       0.15654678      -0.01019285      -0.00958886 </v>
     <v>       0.00000000       0.15687827      -0.00958885 </v>
     <v>       0.00000000       0.00000000       0.15717105 </v>
    </varray>
   </crystal>
   <varray name="positions" >
    <v>       0.50327600       0.63282000       0.26374100 </v>
    <v>       0.26374100       0.50327600       0.63282000 </v>
    <v>       0.63282000       0.26374100       0.50327600 </v>
    <v>       0.49672400       0.36718000       0.73625900 </v>
    <v>       0.73625900       0.49672400       0.36718000 </v>
    <v>       0.36718000       0.73625900       0.49672400 </v>
    <v>       0.21885600       0.21885600       0.21885600 </v>
    <v>       0.78114400       0.78114400       0.78114400 </v>
    <v>       0.00000000       0.00000000       0.00000000 </v>
    <v>       0.62584100       0.98529000       0.30672800 </v>
    <v>       0.30672800       0.62584100       0.98529000 </v>
    <v>       0.98529000       0.30672800       0.62584100 </v>
    <v>       0.37415900       0.01471000       0.69327200 </v>
    <v>       0.69327200       0.37415900       0.01471000 </v>
    <v>       0.01471000       0.69327200       0.37415900 </v>
    <v>       0.62802100       0.62802100       0.62802100 </v>
    <v>       0.37197900       0.37197900       0.37197900 </v>
    <v>       0.00000000       0.00000000       0.50000000 </v>
    <v>       0.50000000       0.00000000       0.00000000 </v>
    <v>       0.00000000       0.50000000       0.00000000 </v>
   </varray>
  </structure>
  <varray name="forces" >
   <v>       1.43742538       6.15241468      -8.07106623 </v>
   <v>      -7.57105602       1.93342449       6.63336196 </v>
   <v>       6.23280873      -7.99290864       1.52512805 </v>
   <v>      -1.43742538      -6.15241468       8.07106623 </v>
   <v>       7.57105602      -1.93342449      -6.63336196 </v>
   <v>      -6.23280873       7.99290864      -1.52512805 </v>
   <v>      -1.99776631      -1.87192047      -1.76099682 </v>
   <v>       1.99776631       1.87192047       1.76099682 </v>
   <v>      -0.00000000       0.00000000       0.00000000 </v>
   <v>       1.13289157      -0.35783028      -0.42153814 </v>
   <v>      -0.36804128       1.15925371      -0.33144610 </v>
   <v>      -0.28346687      -0.35036393       1.17731549 </v>
   <v>      -1.13289157       0.35783028       0.42153814 </v>
   <v>       0.36804128      -1.15925371       0.33144610 </v>
   <v>       0.28346687       0.35036393      -1.17731549 </v>
   <v>       5.73107146       5.37005250       5.05184142 </v>
   <v>      -5.73107146      -5.37005250      -5.05184142 </v>
   <v>      -0.00000000       0.00000000       0.00000000 </v>
   <v>      -0.00000000       0.00000000       0.00000000 </v>
   <v>      -0.00000000       0.00000000       0.00000000 </v>
  </varray>
  <varray name="stress" >
   <v>     277.25405051      47.88375134      45.04632263 </v>
   <v>      47.88375114     271.01851716      42.20869483 </v>
   <v>      45.04632285      42.20869461     265.85869014 </v>
  </varray>
  <energy>
   <i name="e_fr_energy">   -145.37476640 </i>
   <i name="e_wo_entrp">   -145.31949007 </i>
   <i name="e_0_energy">     -0.11055267 </i>
  </energy>
  <time name="totalsc">   32.14   32.21</time>
 </calculation>
 <calculation>
  <scstep>
   <time name="dav">    0.80    0.80</time>
   <time name="total">    0.89    0.89</time>
   <energy>
    <i name="alphaZ">    408.82404419 </i>
    <i name="ewald">  -4646.60249107 </i>
    <i name="hartreedc">   -730.24122247 </i>
    <i name="XCdc">   -783.85035722 </i>
    <i name="pawpsdc">   9477.86072172 </i>
    <i name="pawaedc">  -8680.07143805 </i>
    <i name="eentropy">     -0.07558114 </i>
    <i name="bandstr">     42.72656673 </i>
    <i name="atom">   4687.48422623 </i>
    <i name="e_fr_energy">   -223.94553108 </i>
    <i name="e_wo_entrp">   -223.86994994 </i>
    <i name="e_0_energy">   -223.90774051 </i>
   </energy>
  </scstep>
  <scstep>
   <time name="dav">    1.21    1.21</time>
   <time name="total">    1.30    1.30</time>
   <energy>
    <i name="e_fr_energy">   -878.95080172 </i>
    <i name="e_wo_entrp">   -878.91043671 </i>
    <i name="e_0_energy">   -878.93061921 </i>
   </energy>
  </scstep>
  <scstep>
   <time name="dav">    0.87    0.87</time>
   <time name="total">    0.96    0.96</time>
   <energy>
    <i name="e_fr_energy">   -465.30796872 </i>
    <i name="e_wo_entrp">   -465.24743249 </i>
    <i name="e_0_energy">   -465.27770060 </i>
   </energy>
  </scstep>
  <scstep>
   <time name="dav">    1.29    1.30</time>
   <time name="total">    1.38    1.38</time>
   <energy>
    <i name="e_fr_energy">   -157.69842121 </i>
    <i name="e_wo_entrp">   -157.59234742 </i>
    <i name="e_0_energy">   -157.64538431 </i>
   </energy>
  </scstep>
  <scstep>
   <time name="dav">    1.24    1.24</time>
   <time name="total">    1.33    1.33</time>
   <energy>
    <i name="e_fr_energy">   -178.34384831 </i>
    <i name="e_wo_entrp">   -178.26171453 </i>
    <i name="e_0_energy">   -178.30278142 </i>
   </energy>
  </scstep>
  <scstep>
   <time name="dav">    1.22    1.22</time>
   <time name="total">    1.31    1.31</time>
   <energy>
    <i name="e_fr_energy">   -167.61135904 </i>
    <i name="e_wo_entrp">   -167.44504712 </i>
    <i name="e_0_energy">   -167.52820308 </i>
   </energy>
  </scstep>
  <scstep>
   <time name="dav">    1.20    1.20</time>
   <time name="total">    1.29    1.29</time>
   <energy>
    <i name="e_fr_energy">   -164.98235851 </i>
    <i name="e_wo_entrp">   -164.81594311 </i>
    <i name="e_0_energy">   -164.89915081 </i>
   </energy>
  </scstep>
  <scstep>
   <time name="dav">    1.17    1.17</time>
   <time name="total">    1.26    1.26</time>
   <energy>
    <i name="e_fr_energy">   -162.82505451 </i>
    <i name="e_wo_entrp">   -162.63710869 </i>
    <i name="e_0_energy">   -162.73108160 </i>
   </energy>
  </scstep>
  <scstep>
   <time name="dav">    1.24    1.24</time>
   <time name="total">    1.32    1.33</time>
   <energy>
    <i name="e_fr_energy">   -159.86440477 </i>
    <i name="e_wo_entrp">   -159.69929320 </i>
    <i name="e_0_energy">   -159.78184898 </i>
   </energy>
  </scstep>
  <scstep>
   <time name="dav">    1.16    1.16</time>
   <time name="total">    1.25    1.25</time>
   <energy>
    <i name="e_fr_energy">   -158.27056396 </i>
    <i name="e_wo_entrp">   -158.07115510 </i>
    <i name="e_0_energy">   -158.17085953 </i>
   </energy>
  </scstep>
  <scstep>
   <time name="dav">    1.24    1.24</time>
   <time name="total">    1.33    1.33</time>
   <energy>
    <i name="e_fr_energy">   -158.45581024 </i>
    <i name="e_wo_entrp">   -158.27555622 </i>
    <i name="e_0_energy">   -158.36568323 </i>
   </energy>
  </scstep>
  <scstep>
   <time name="dav">    1.24    1.24</time>
   <time name="total">    1.33    1.33</time>
   <energy>
    <i name="e_fr_energy">   -157.33327316 </i>
    <i name="e_wo_entrp">   -157.14278999 </i>
    <i name="e_0_energy">   -157.23803158 </i>
   </energy>
  </scstep>
  <scstep>
   <time name="dav">    1.22    1.22</time>
   <time name="total">    1.32    1.32</time>
   <energy>
    <i name="e_fr_energy">   -165.02685212 </i>
    <i name="e_wo_entrp">   -164.85111848 </i>
    <i name="e_0_energy">   -164.93898530 </i>
   </energy>
  </scstep>
  <scstep>
   <time name="dav">    1.26    1.26</time>
   <time name="total">    1.35    1.35</time>
   <energy>
    <i name="e_fr_energy">   -159.96028844 </i>
    <i name="e_wo_entrp">   -159.76342299 </i>
    <i name="e_0_energy">   -159.86185571 </i>
   </energy>
  </scstep>
  <scstep>
   <time name="dav">    1.24    1.24</time>
   <time name="total">    1.33    1.33</time>
   <energy>
    <i name="e_fr_energy">   -157.27491245 </i>
    <i name="e_wo_entrp">   -157.04720137 </i>
    <i name="e_0_energy">   -157.16105691 </i>
   </energy>
  </scstep>
  <scstep>
   <time name="dav">    1.13    1.13</time>
   <time name="total">    1.22    1.22</time>
   <energy>
    <i name="e_fr_energy">   -157.09727030 </i>
    <i name="e_wo_entrp">   -156.86721341 </i>
    <i name="e_0_energy">   -156.98224185 </i>
   </energy>
  </scstep>
  <scstep>
   <time name="dav">    1.23    1.23</time>
   <time name="total">    1.32    1.33</time>
   <energy>
    <i name="e_fr_energy">   -156.63312605 </i>
    <i name="e_wo_entrp">   -156.42587131 </i>
    <i name="e_0_energy">   -156.52949868 </i>
   </energy>
  </scstep>
  <scstep>
   <time name="dav">    1.07    1.07</time>
   <time name="total">    1.16    1.16</time>
   <energy>
    <i name="e_fr_energy">   -156.59315055 </i>
    <i name="e_wo_entrp">   -156.38667420 </i>
    <i name="e_0_energy">   -156.48991237 </i>
   </energy>
  </scstep>
  <scstep>
   <time name="dav">    1.22    1.23</time>
   <time name="total">    1.31    1.32</time>
   <energy>
    <i name="e_fr_energy">   -156.53029436 </i>
    <i name="e_wo_entrp">   -156.34179620 </i>
    <i name="e_0_energy">   -156.43604528 </i>
   </energy>
  </scstep>
  <scstep>
   <time name="dav">    1.10    1.10</time>
   <time name="total">    1.19    1.20</time>
   <energy>
    <i name="e_fr_energy">   -156.53193051 </i>
    <i name="e_wo_entrp">   -156.34370827 </i>
    <i name="e_0_energy">   -156.43781939 </i>
   </energy>
  </scstep>
  <scstep>
   <time name="dav">    1.02    1.02</time>
   <time name="total">    1.11    1.11</time>
   <energy>
    <i name="e_fr_energy">   -156.53778968 </i>
    <i name="e_wo_entrp">   -156.35032675 </i>
    <i name="e_0_energy">   -156.44405822 </i>
   </energy>
  </scstep>
  <scstep>
   <time name="dav">    1.18    1.18</time>
   <time name="total">    1.27    1.28</time>
   <energy>
    <i name="e_fr_energy">   -156.52061464 </i>
    <i name="e_wo_entrp">   -156.33358107 </i>
    <i name="e_0_energy">   -156.42709786 </i>
   </energy>
  </scstep>
  <scstep>
   <time name="dav">    1.11    1.11</time>
   <time name="total">    1.21    1.21</time>
   <energy>
    <i name="e_fr_energy">   -156.50010428 </i>
    <i name="e_wo_entrp">   -156.31224167 </i>
    <i name="e_0_energy">   -156.40617298 </i>
   </energy>
  </scstep>
  <scstep>
   <time name="dav">    1.17    1.17</time>
   <time name="total">    1.26    1.27</time>
   <energy>
    <i name="e_fr_energy">   -156.46014482 </i>
    <i name="e_wo_entrp">   -156.26909640 </i>
    <i name="e_0_energy">   -156.36462061 </i>
   </energy>
  </scstep>
  <scstep>
   <time name="dav">    0.99    0.99</time>
   <time name="total">    1.08    1.09</time>
   <energy>
    <i name="e_fr_energy">   -156.45679172 </i>
    <i name="e_wo_entrp">   -156.26520176 </i>
    <i name="e_0_energy">   -156.36099674 </i>
   </energy>
  </scstep>
  <scstep>
   <time name="dav">    1.25    1.25</time>
   <time name="total">    1.34    1.34</time>
   <energy>
    <i name="e_fr_energy">   -156.44388994 </i>
    <i name="e_wo_entrp">   -156.24890422 </i>
    <i name="e_0_energy">   -156.34639708 </i>
   </energy>
  </scstep>
  <scstep>
   <time name="dav">    1.15    1.16</time>
   <time name="total">    1.25    1.25</time>
   <energy>
    <i name="e_fr_energy">   -156.44244072 </i>
    <i name="e_wo_entrp">   -156.24628955 </i>
    <i name="e_0_energy">   -156.34436514 </i>
   </energy>
  </scstep>
  <scstep>
   <time name="dav">    1.11    1.11</time>
   <time name="total">    1.20    1.20</time>
   <energy>
    <i name="e_fr_energy">   -156.44091380 </i>
    <i name="e_wo_entrp">   -156.24561510 </i>
    <i name="e_0_energy">   -156.34326445 </i>
   </energy>
  </scstep>
  <scstep>
   <time name="dav">    1.09    1.09</time>
   <time name="total">    1.18    1.19</time>
   <energy>
    <i name="e_fr_energy">   -156.44029792 </i>
    <i name="e_wo_entrp">   -156.24527017 </i>
    <i name="e_0_energy">   -156.34278405 </i>
   </energy>
  </scstep>
  <scstep>
   <time name="dav">    1.16    1.17</time>
   <time name="total">    1.26    1.26</time>
   <energy>
    <i name="e_fr_energy">   -156.43996373 </i>
    <i name="e_wo_entrp">   -156.24506438 </i>
    <i name="e_0_energy">   -156.34251405 </i>
   </energy>
  </scstep>
  <scstep>
   <time name="dav">    1.12    1.12</time>
   <time name="total">    1.21    1.22</time>
   <energy>
    <i name="e_fr_energy">   -156.43946113 </i>
    <i name="e_wo_entrp">   -156.24542461 </i>
    <i name="e_0_energy">   -156.34244287 </i>
   </energy>
  </scstep>
  <scstep>
   <time name="dav">    1.18    1.18</time>
   <time name="total">    1.28    1.28</time>
   <energy>
    <i name="e_fr_energy">   -156.43933663 </i>
    <i name="e_wo_entrp">   -156.24568392 </i>
    <i name="e_0_energy">   -156.34251027 </i>
   </energy>
  </scstep>
  <scstep>
   <time name="dav">    0.92    0.92</time>
   <time name="total">    1.01    1.01</time>
   <energy>
    <i name="e_fr_energy">   -156.43930185 </i>
    <i name="e_wo_entrp">   -156.24586559 </i>
    <i name="e_0_energy">   -156.34258372 </i>
   </energy>
  </scstep>
  <scstep>
   <time name="dav">    0.68    0.68</time>
   <time name="total">    0.77    0.77</time>
   <energy>
    <i name="e_fr_energy">   -156.43928919 </i>
    <i name="e_wo_entrp">   -156.24598682 </i>
    <i name="e_0_energy">   -156.34263800 </i>
   </energy>
  </scstep>
  <scstep>
   <time name="dav">    0.81    0.81</time>
   <time name="total">    0.86    0.86</time>
   <energy>
    <i name="alphaZ">    408.82404419 </i>
    <i name="ewald">  -4646.60249107 </i>
    <i name="hartreedc">   -889.23702544 </i>
    <i name="XCdc">   -780.94797699 </i>
    <i name="pawpsdc">   6482.19577236 </i>
    <i name="pawaedc">  -5666.89444422 </i>
    <i name="eentropy">     -0.19316540 </i>
    <i name="bandstr">    248.93177576 </i>
    <i name="atom">   4687.48422623 </i>
    <i name="e_fr_energy">   -156.43928459 </i>
    <i name="e_wo_entrp">   -156.24611918 </i>
    <i name="e_0_energy">   -156.34270188 </i>
   </energy>
  </scstep>
  <structure>
   <crystal>
    <varray name="basis" >
     <v>       7.07865518       0.11930404       0.11223449 </v>
     <v>       0.57897354       7.05594582       0.11223444 </v>
     <v>       0.57897354       0.54250170       7.03595490 </v>
    </varray>
    <i name="volume">    350.08957989 </i>
    <varray name="rec_basis" >
     <v>       0.14163355      -0.01145036      -0.01077185 </v>
     <v>      -0.00222380       0.14207826      -0.01077184 </v>
     <v>      -0.00222380      -0.00208372       0.14247077 </v>
    </varray>
   </crystal>
   <varray name="positions" >
    <v>       0.51484005       0.68311646       0.20254336 </v>
    <v>       0.20254336       0.51484005       0.68311646 </v>
    <v>       0.68311646       0.20254336       0.51484005 </v>
    <v>       0.48515995       0.31688354       0.79745664 </v>
    <v>       0.79745664       0.48515995       0.31688354 </v>
    <v>       0.31688354       0.79745664       0.48515995 </v>
    <v>       0.20550351       0.20550351       0.20550351 </v>
    <v>       0.79449649       0.79449649       0.79449649 </v>
    <v>      -0.00000000       0.00000000       0.00000000 </v>
    <v>       0.63476782       0.98277686       0.30353175 </v>
    <v>       0.30353175       0.63476782       0.98277686 </v>
    <v>       0.98277686       0.30353175       0.63476782 </v>
    <v>       0.36523218       0.01722314       0.69646825 </v>
    <v>       0.69646825       0.36523218       0.01722314 </v>
    <v>       0.01722314       0.69646825       0.36523218 </v>
    <v>       0.66632582       0.66632582       0.66632582 </v>
    <v>       0.33367418       0.33367418       0.33367418 </v>
    <v>      -0.00000000       0.00000000       0.50000000 </v>
    <v>       0.50000000       0.00000000       0.00000000 </v>
    <v>      -0.00000000       0.50000000       0.00000000 </v>
   </varray>
  </structure>
  <varray name="forces" >
   <v>      -0.07425368      -0.09553399      -0.89643610 </v>
   <v>      -0.90351630      -0.01558242      -0.04066535 </v>
   <v>      -0.10015667      -0.89890810      -0.01307243 </v>
   <v>       0.07425368       0.09553399       0.89643610 </v>
   <v>       0.90351630       0.01558242       0.04066535 </v>
   <v>       0.10015667       0.89890810       0.01307243 </v>
   <v>      -1.37631223      -1.28961379      -1.21319566 </v>
   <v>       1.37631223       1.28961379       1.21319566 </v>
   <v>      -0.00000000      -0.00000000       0.00000000 </v>
   <v>      -0.10644253      -0.10177713      -0.25181008 </v>
   <v>      -0.26392205      -0.08948378      -0.08622485 </v>
   <v>      -0.10847799      -0.25741780      -0.08405660 </v>
   <v>       0.10644253       0.10177713       0.25181008 </v>
   <v>       0.26392205       0.08948378       0.08622485 </v>
   <v>       0.10847799       0.25741780       0.08405660 </v>
   <v>      -1.41438212      -1.32528554      -1.24675362 </v>
   <v>       1.41438212       1.32528554       1.24675362 </v>
   <v>      -0.00000000       0.00000000       0.00000000 </v>
   <v>      -0.00000000      -0.00000000       0.00000000 </v>
   <v>      -0.00000000      -0.00000000       0.00000000 </v>
  </varray>
  <varray name="stress" >
   <v>    -235.22979124      23.56221570      22.16599860 </v>
   <v>      23.56221555    -238.29804238      20.76970721 </v>
   <v>      22.16599876      20.76970704    -240.83705813 </v>
  </varray>
  <energy>
   <i name="e_fr_energy">   -156.43928459 </i>
   <i name="e_wo_entrp">   -156.34270188 </i>
   <i name="e_0_energy">     -0.19316540 </i>
  </energy>
  <time name="totalsc">   43.96   44.02</time>
 </calculation>
 <calculation>
  <scstep>
   <time name="dav">    0.81    0.81</time>
   <time name="total">    0.90    0.90</time>
   <energy>
    <i name="alphaZ">    458.98547672 </i>
    <i name="ewald">  -4841.52781700 </i>
    <i name="hartreedc">   -913.01631231 </i>
    <i name="XCdc">   -773.99075957 </i>
    <i name="pawpsdc">   6481.51683021 </i>
    <i name="pawaedc">  -5666.21170626 </i>
    <i name="eentropy">     -0.13358275 </i>
    <i name="bandstr">    394.80797493 </i>
    <i name="atom">   4687.48422623 </i>
    <i name="e_fr_energy">   -172.08566980 </i>
    <i name="e_wo_entrp">   -171.95208705 </i>
    <i name="e_0_energy">   -172.01887842 </i>
   </energy>
  </scstep>
  <scstep>
   <time name="dav">    1.24    1.24</time>
   <time name="total">    1.33    1.33</time>
   <energy>
    <i name="e_fr_energy">   -320.62434430 </i>
    <i name="e_wo_entrp">   -320.53477259 </i>
    <i name="e_0_energy">   -320.57955845 </i>
   </energy>
  </scstep>
  <scstep>
   <time name="dav">    1.13    1.13</time>
   <time name="total">    1.22    1.22</time>
   <energy>
    <i name="e_fr_energy">   -221.67896530 </i>
    <i name="e_wo_entrp">   -221.54605361 </i>
    <i name="e_0_energy">   -221.61250945 </i>
   </energy>
  </scstep>
  <scstep>
   <time name="dav">    1.12    1.12</time>
   <time name="total">    1.21    1.21</time>
   <energy>
    <i name="e_fr_energy">   -167.69251781 </i>
    <i name="e_wo_entrp">   -167.52151858 </i>
    <i name="e_0_energy">   -167.60701819 </i>
   </energy>
  </scstep>
  <scstep>
   <time name="dav">    1.14    1.14</time>
   <time name="total">    1.23    1.23</time>
   <energy>
    <i name="e_fr_energy">   -160.86815263 </i>
    <i name="e_wo_entrp">   -160.73568817 </i>
    <i name="e_0_energy">   -160.80192040 </i>
   </energy>
  </scstep>
  <scstep>
   <time name="dav">    1.21    1.21</time>
   <time name="total">    1.30    1.30</time>
   <energy>
    <i name="e_fr_energy">   -161.39466723 </i>
    <i name="e_wo_entrp">   -161.27634264 </i>
    <i name="e_0_energy">   -161.33550493 </i>
   </energy>
  </scstep>
  <scstep>
   <time name="dav">    1.18    1.18</time>
   <time name="total">    1.27    1.27</time>
   <energy>
    <i name="e_fr_energy">   -161.17583136 </i>
    <i name="e_wo_entrp">   -161.04593407 </i>
    <i name="e_0_energy">   -161.11088272 </i>
   </energy>
  </scstep>
  <scstep>
   <time name="dav">    1.13    1.13</time>
   <time name="total">    1.22    1.22</time>
   <energy>
    <i name="e_fr_energy">   -160.09636653 </i>
    <i name="e_wo_entrp">   -159.94869180 </i>
    <i name="e_0_energy">   -160.02252916 </i>
   </energy>
  </scstep>
  <scstep>
   <time name="dav">    1.25    1.25</time>
   <time name="total">    1.34    1.34</time>
   <energy>
    <i name="e_fr_energy">   -160.34489452 </i>
    <i name="e_wo_entrp">   -160.21495157 </i>
    <i name="e_0_energy">   -160.27992304 </i>
   </energy>
  </scstep>
  <scstep>
   <time name="dav">    1.28    1.28</time>
   <time name="total">    1.37    1.37</time>
   <energy>
    <i name="e_fr_energy">   -159.78868838 </i>
    <i name="e_wo_entrp">   -159.64028688 </i>
    <i name="e_0_energy">   -159.71448763 </i>
   </energy>
  </scstep>
  <scstep>
   <time name="dav">    1.24    1.25</time>
   <time name="total">    1.34    1.34</time>
   <energy>
    <i name="e_fr_energy">   -159.85024960 </i>
    <i name="e_wo_entrp">   -159.69863962 </i>
    <i name="e_0_energy">   -159.77444461 </i>
   </energy>
  </scstep>
  <scstep>
   <time name="dav">    1.25    1.25</time>
   <time name="total">    1.34    1.34</time>
   <energy>
    <i name="e_fr_energy">   -159.77265975 </i>
    <i name="e_wo_entrp">   -159.62933538 </i>
    <i name="e_0_energy">   -159.70099757 </i>
   </energy>
  </scstep>
  <scstep>
   <time name="dav">    1.26    1.26</time>
   <time name="total">    1.35    1.35</time>
   <energy>
    <i name="e_fr_energy">   -159.77161785 </i>
    <i name="e_wo_entrp">   -159.63118895 </i>
    <i name="e_0_energy">   -159.70140340 </i>
   </energy>
  </scstep>
  <scstep>
   <time name="dav">    1.17    1.17</time>
   <time name="total">    1.27    1.27</time>
   <energy>
    <i name="e_fr_energy">   -159.76490421 </i>
    <i name="e_wo_entrp">   -159.62142935 </i>
    <i name="e_0_energy">   -159.69316678 </i>
   </energy>
  </scstep>
  <scstep>
   <time name="dav">    1.25    1.25</time>
   <time name="total">    1.34    1.34</time>
   <energy>
    <i name="e_fr_energy">   -159.76493282 </i>
    <i name="e_wo_entrp">   -159.61987757 </i>
    <i name="e_0_energy">   -159.69240519 </i>
   </energy>
  </scstep>
  <scstep>
   <time name="dav">    1.24    1.25</time>
   <time name="total">    1.34    1.34</time>
   <energy>
    <i name="e_fr_energy">   -159.76414291 </i>
    <i name="e_wo_entrp">   -159.61993343 </i>
    <i name="e_0_energy">   -159.69203817 </i>
   </energy>
  </scstep>
  <scstep>
   <time name="dav">    1.07    1.07</time>
   <time name="total">    1.16    1.16</time>
   <energy>
    <i name="e_fr_energy">   -159.76411022 </i>
    <i name="e_wo_entrp">   -159.61958894 </i>
    <i name="e_0_energy">   -159.69184958 </i>
   </energy>
  </scstep>
  <scstep>
   <time name="dav">    1.18    1.18</time>
   <time name="total">    1.27    1.27</time>
   <energy>
    <i name="e_fr_energy">   -159.76401943 </i>
    <i name="e_wo_entrp">   -159.61978761 </i>
    <i name="e_0_energy">   -159.69190352 </i>
   </energy>
  </scstep>
  <scstep>
   <time name="dav">    0.72    0.73</time>
   <time name="total">    0.78    0.78</time>
   <energy>
    <i name="alphaZ">    458.98547672 </i>
    <i name="ewald">  -4841.52781700 </i>
    <i name="hartreedc">   -825.47160928 </i>
    <i name="XCdc">   -776.45601552 </i>
    <i name="pawpsdc">   7132.81527442 </i>
    <i name="pawaedc">  -6323.08332759 </i>
    <i name="eentropy">     -0.14431167 </i>
    <i name="bandstr">    327.63408199 </i>
    <i name="atom">   4687.48422623 </i>
    <i name="e_fr_energy">   -159.76402169 </i>
    <i name="e_wo_entrp">   -159.61971002 </i>
    <i name="e_0_energy">   -159.69186586 </i>
   </energy>
  </scstep>
  <structure>
   <crystal>
    <varray name="basis" >
     <v>       6.80448197       0.07195238       0.06768872 </v>
     <v>       0.51390807       6.78542859       0.06768869 </v>
     <v>       0.51390807       0.48153494       6.76865927 </v>
    </varray>
    <i name="volume">    311.82912126 </i>
    <varray name="rec_basis" >
     <v>       0.14718208      -0.01104349      -0.01038909 </v>
     <v>      -0.00145729       0.14758863      -0.01038908 </v>
     <v>      -0.00145729      -0.00136549       0.14794753 </v>
    </varray>
   </crystal>
   <varray name="positions" >
    <v>       0.51062607       0.66477572       0.22486754 </v>
    <v>       0.22486754       0.51062607       0.66477572 </v>
    <v>       0.66477572       0.22486754       0.51062607 </v>
    <v>       0.48937393       0.33522428       0.77513246 </v>
    <v>       0.77513246       0.48937393       0.33522428 </v>
    <v>       0.33522428       0.77513246       0.48937393 </v>
    <v>       0.21014768       0.21014768       0.21014768 </v>
    <v>       0.78985232       0.78985232       0.78985232 </v>
    <v>      -0.00000000       0.00000000       0.00000000 </v>
    <v>       0.63153010       0.98371161       0.30471565 </v>
    <v>       0.30471565       0.63153010       0.98371161 </v>
    <v>       0.98371161       0.30471565       0.63153010 </v>
    <v>       0.36846990       0.01628839       0.69528435 </v>
    <v>       0.69528435       0.36846990       0.01628839 </v>
    <v>       0.01628839       0.69528435       0.36846990 </v>
    <v>       0.65300291       0.65300291       0.65300291 </v>
    <v>       0.34699709       0.34699709       0.34699709 </v>
    <v>      -0.00000000       0.00000000       0.50000000 </v>
    <v>       0.50000000       0.00000000       0.00000000 </v>
    <v>      -0.00000000       0.50000000       0.00000000 </v>
   </varray>
  </structure>
  <varray name="forces" >
   <v>      -0.09788183       0.27655870      -2.00835975 </v>
   <v>      -1.98990579       0.03147483       0.39857159 </v>
   <v>       0.26961458      -2.01167388       0.00709975 </v>
   <v>       0.09788183      -0.27655870       2.00835975 </v>
   <v>       1.98990579      -0.03147483      -0.39857159 </v>
   <v>      -0.26961458       2.01167388      -0.00709975 </v>
   <v>      -1.38673634      -1.29938126      -1.22238434 </v>
   <v>       1.38673634       1.29938126       1.22238434 </v>
   <v>       0.00000000      -0.00000000      -0.00000000 </v>
   <v>       0.23678010       0.01110802      -0.32671896 </v>
   <v>      -0.30936074       0.25742410       0.03102013 </v>
   <v>       0.02646885      -0.31173918       0.25505208 </v>
   <v>      -0.23678010      -0.01110802       0.32671896 </v>
   <v>       0.30936074      -0.25742410      -0.03102013 </v>
   <v>      -0.02646885       0.31173918      -0.25505208 </v>
   <v>      -0.50886990      -0.47681451      -0.44856010 </v>
   <v>       0.50886990       0.47681451       0.44856010 </v>
   <v>       0.00000000      -0.00000000      -0.00000000 </v>
   <v>       0.00000000      -0.00000000      -0.00000000 </v>
   <v>       0.00000000      -0.00000000      -0.00000000 </v>
  </varray>
  <varray name="stress" >
   <v>    -119.03370584      37.95819281      35.70891914 </v>
   <v>      37.95819275    -123.97664633      33.45950714 </v>
   <v>      35.70891920      33.45950707    -128.06693264 </v>
  </varray>
  <energy>
   <i name="e_fr_energy">   -159.76402169 </i>
   <i name="e_wo_entrp">   -159.69186586 </i>
   <i name="e_0_energy">     -0.14431167 </i>
  </energy>
  <time name="totalsc">   25.08   25.11</time>
 </calculation>
 <calculation>
  <scstep>
   <time name="dav">    0.90    0.91</time>
   <time name="total">    1.00    1.00</time>
   <energy>
    <i name="alphaZ">    461.43985465 </i>
    <i name="ewald">  -4848.89005631 </i>
    <i name="hartreedc">   -827.84819132 </i>
    <i name="XCdc">   -776.14099762 </i>
    <i name="pawpsdc">   7132.84714374 </i>
    <i name="pawaedc">  -6323.11866806 </i>
    <i name="eentropy">     -0.14266490 </i>
    <i name="bandstr">    334.56134449 </i>
    <i name="atom">   4687.48422623 </i>
    <i name="e_fr_energy">   -159.80800910 </i>
    <i name="e_wo_entrp">   -159.66534421 </i>
    <i name="e_0_energy">   -159.73667665 </i>
   </energy>
  </scstep>
  <scstep>
   <time name="dav">    1.30    1.30</time>
   <time name="total">    1.39    1.39</time>
   <energy>
    <i name="e_fr_energy">   -161.36388437 </i>
    <i name="e_wo_entrp">   -161.22273745 </i>
    <i name="e_0_energy">   -161.29331091 </i>
   </energy>
  </scstep>
  <scstep>
   <time name="dav">    1.25    1.26</time>
   <time name="total">    1.35    1.35</time>
   <energy>
    <i name="e_fr_energy">   -159.75476422 </i>
    <i name="e_wo_entrp">   -159.60862670 </i>
    <i name="e_0_energy">   -159.68169546 </i>
   </energy>
  </scstep>
  <scstep>
   <time name="dav">    1.08    1.08</time>
   <time name="total">    1.17    1.17</time>
   <energy>
    <i name="e_fr_energy">   -159.78641276 </i>
    <i name="e_wo_entrp">   -159.65144180 </i>
    <i name="e_0_energy">   -159.71892728 </i>
   </energy>
  </scstep>
  <scstep>
   <time name="dav">    1.20    1.20</time>
   <time name="total">    1.29    1.29</time>
   <energy>
    <i name="e_fr_energy">   -159.78949612 </i>
    <i name="e_wo_entrp">   -159.64557981 </i>
    <i name="e_0_energy">   -159.71753797 </i>
   </energy>
  </scstep>
  <scstep>
   <time name="dav">    1.07    1.08</time>
   <time name="total">    1.17    1.17</time>
   <energy>
    <i name="e_fr_energy">   -159.78104475 </i>
    <i name="e_wo_entrp">   -159.64241452 </i>
    <i name="e_0_energy">   -159.71172964 </i>
   </energy>
  </scstep>
  <scstep>
   <time name="dav">    1.19    1.19</time>
   <time name="total">    1.28    1.28</time>
   <energy>
    <i name="e_fr_energy">   -159.77999242 </i>
    <i name="e_wo_entrp">   -159.63973242 </i>
    <i name="e_0_energy">   -159.70986242 </i>
   </energy>
  </scstep>
  <scstep>
   <time name="dav">    1.28    1.28</time>
   <time name="total">    1.37    1.37</time>
   <energy>
    <i name="e_fr_energy">   -159.77915127 </i>
    <i name="e_wo_entrp">   -159.64003256 </i>
    <i name="e_0_energy">   -159.70959191 </i>
   </energy>
  </scstep>
  <scstep>
   <time name="dav">    1.07    1.07</time>
   <time name="total">    1.16    1.17</time>
   <energy>
    <i name="e_fr_energy">   -159.77918792 </i>
    <i name="e_wo_entrp">   -159.63973898 </i>
    <i name="e_0_energy">   -159.70946345 </i>
   </energy>
  </scstep>
  <scstep>
   <time name="dav">    1.13    1.13</time>
   <time name="total">    1.22    1.22</time>
   <energy>
    <i name="e_fr_energy">   -159.77910574 </i>
    <i name="e_wo_entrp">   -159.63946925 </i>
    <i name="e_0_energy">   -159.70928749 </i>
   </energy>
  </scstep>
  <scstep>
   <time name="dav">    0.78    0.78</time>
   <time name="total">    0.83    0.83</time>
   <energy>
    <i name="alphaZ">    461.43985465 </i>
    <i name="ewald">  -4848.89005631 </i>
    <i name="hartreedc">   -824.14845724 </i>
    <i name="XCdc">   -776.24254631 </i>
    <i name="pawpsdc">   7172.73435612 </i>
    <i name="pawaedc">  -6363.29323649 </i>
    <i name="eentropy">     -0.13948621 </i>
    <i name="bandstr">    331.27624433 </i>
    <i name="atom">   4687.48422623 </i>
    <i name="e_fr_energy">   -159.77910123 </i>
    <i name="e_wo_entrp">   -159.63961503 </i>
    <i name="e_0_energy">   -159.70935813 </i>
   </energy>
  </scstep>
  <structure>
   <crystal>
    <varray name="basis" >
     <v>       6.79211272       0.06981612       0.06567905 </v>
     <v>       0.51097266       6.77322428       0.06567902 </v>
     <v>       0.51097266       0.47878444       6.75660030 </v>
    </varray>
    <i name="volume">    310.17051612 </i>
    <varray name="rec_basis" >
     <v>       0.14744317      -0.01102258      -0.01036941 </v>
     <v>      -0.00141946       0.14784781      -0.01036941 </v>
     <v>      -0.00141946      -0.00133004       0.14820502 </v>
    </varray>
   </crystal>
   <varray name="positions" >
    <v>       0.51042957       0.66392071       0.22590810 </v>
    <v>       0.22590810       0.51042957       0.66392071 </v>
    <v>       0.66392071       0.22590810       0.51042957 </v>
    <v>       0.48957043       0.33607929       0.77409190 </v>
    <v>       0.77409190       0.48957043       0.33607929 </v>
    <v>       0.33607929       0.77409190       0.48957043 </v>
    <v>       0.21036801       0.21036801       0.21036801 </v>
    <v>       0.78963199       0.78963199       0.78963199 </v>
    <v>      -0.00000000       0.00000000       0.00000000 </v>
    <v>       0.63137887       0.98375487       0.30477053 </v>
    <v>       0.30477053       0.63137887       0.98375487 </v>
    <v>       0.98375487       0.30477053       0.63137887 </v>
    <v>       0.36862113       0.01624513       0.69522947 </v>
    <v>       0.69522947       0.36862113       0.01624513 </v>
    <v>       0.01624513       0.69522947       0.36862113 </v>
    <v>       0.65237083       0.65237083       0.65237083 </v>
    <v>       0.34762917       0.34762917       0.34762917 </v>
    <v>      -0.00000000       0.00000000       0.50000000 </v>
    <v>       0.50000000       0.00000000       0.00000000 </v>
    <v>      -0.00000000       0.50000000       0.00000000 </v>
   </varray>
  </structure>
  <varray name="forces" >
   <v>      -0.09079171       0.33107966      -2.09229563 </v>
   <v>      -2.06972838       0.04377726       0.45811183 </v>
   <v>       0.32448100      -2.09523788       0.01574677 </v>
   <v>       0.09079171      -0.33107966       2.09229563 </v>
   <v>       2.06972838      -0.04377726      -0.45811183 </v>
   <v>      -0.32448100       2.09523788      -0.01574677 </v>
   <v>      -1.39394118      -1.30613225      -1.22873529 </v>
   <v>       1.39394118       1.30613225       1.22873529 </v>
   <v>       0.00000000      -0.00000000       0.00000000 </v>
   <v>       0.25586206       0.01464203      -0.33319730 </v>
   <v>      -0.31435839       0.27687186       0.03494279 </v>
   <v>       0.03123520      -0.31705776       0.27422429 </v>
   <v>      -0.25586206      -0.01464203       0.33319730 </v>
   <v>       0.31435839      -0.27687186      -0.03494279 </v>
   <v>      -0.03123520       0.31705776      -0.27422429 </v>
   <v>      -0.43510250      -0.40769396      -0.38353540 </v>
   <v>       0.43510250       0.40769396       0.38353540 </v>
   <v>       0.00000000      -0.00000000       0.00000000 </v>
   <v>       0.00000000      -0.00000000       0.00000000 </v>
   <v>       0.00000000      -0.00000000       0.00000000 </v>
  </varray>
  <varray name="stress" >
   <v>    -110.47817562      38.60225448      36.31481585 </v>
   <v>      38.60225437    -115.50498844      34.02723596 </v>
   <v>      36.31481597      34.02723584    -119.66467694 </v>
  </varray>
  <energy>
   <i name="e_fr_energy">   -159.77910123 </i>
   <i name="e_wo_entrp">   -159.70935813 </i>
   <i name="e_0_energy">     -0.13948621 </i>
  </energy>
  <time name="totalsc">   14.73   14.75</time>
 </calculation>
 <calculation>
  <scstep>
   <time name="dav">    0.86    0.86</time>
   <time name="total">    0.95    0.95</time>
   <energy>
    <i name="alphaZ">    517.42635938 </i>
    <i name="ewald">  -5075.04881201 </i>
    <i name="hartreedc">   -841.43616418 </i>
    <i name="XCdc">   -768.82553079 </i>
    <i name="pawpsdc">   7173.24341702 </i>
    <i name="pawaedc">  -6363.80570900 </i>
    <i name="eentropy">     -0.12900977 </i>
    <i name="bandstr">    496.17540150 </i>
    <i name="atom">   4687.48422623 </i>
    <i name="e_fr_energy">   -174.91582163 </i>
    <i name="e_wo_entrp">   -174.78681186 </i>
    <i name="e_0_energy">   -174.85131674 </i>
   </energy>
  </scstep>
  <scstep>
   <time name="dav">    1.16    1.16</time>
   <time name="total">    1.25    1.25</time>
   <energy>
    <i name="e_fr_energy">   -263.84764215 </i>
    <i name="e_wo_entrp">   -263.80920163 </i>
    <i name="e_0_energy">   -263.82842189 </i>
   </energy>
  </scstep>
  <scstep>
   <time name="dav">    1.17    1.17</time>
   <time name="total">    1.26    1.26</time>
   <energy>
    <i name="e_fr_energy">   -174.54269049 </i>
    <i name="e_wo_entrp">   -174.45734039 </i>
    <i name="e_0_energy">   -174.50001544 </i>
   </energy>
  </scstep>
  <scstep>
   <time name="dav">    1.26    1.26</time>
   <time name="total">    1.35    1.35</time>
   <energy>
    <i name="e_fr_energy">   -166.33572644 </i>
    <i name="e_wo_entrp">   -166.18667885 </i>
    <i name="e_0_energy">   -166.26120265 </i>
   </energy>
  </scstep>
  <scstep>
   <time name="dav">    1.05    1.05</time>
   <time name="total">    1.14    1.14</time>
   <energy>
    <i name="e_fr_energy">   -164.74726691 </i>
    <i name="e_wo_entrp">   -164.60082563 </i>
    <i name="e_0_energy">   -164.67404627 </i>
   </energy>
  </scstep>
  <scstep>
   <time name="dav">    1.28    1.28</time>
   <time name="total">    1.37    1.37</time>
   <energy>
    <i name="e_fr_energy">   -165.51347852 </i>
    <i name="e_wo_entrp">   -165.36702442 </i>
    <i name="e_0_energy">   -165.44025147 </i>
   </energy>
  </scstep>
  <scstep>
   <time name="dav">    1.16    1.16</time>
   <time name="total">    1.25    1.25</time>
   <energy>
    <i name="e_fr_energy">   -164.21093948 </i>
    <i name="e_wo_entrp">   -164.08898775 </i>
    <i name="e_0_energy">   -164.14996361 </i>
   </energy>
  </scstep>
  <scstep>
   <time name="dav">    1.07    1.07</time>
   <time name="total">    1.16    1.16</time>
   <energy>
    <i name="e_fr_energy">   -164.06170067 </i>
    <i name="e_wo_entrp">   -163.92812556 </i>
    <i name="e_0_energy">   -163.99491312 </i>
   </energy>
  </scstep>
  <scstep>
   <time name="dav">    1.27    1.27</time>
   <time name="total">    1.36    1.36</time>
   <energy>
    <i name="e_fr_energy">   -163.88648344 </i>
    <i name="e_wo_entrp">   -163.73231668 </i>
    <i name="e_0_energy">   -163.80940006 </i>
   </energy>
  </scstep>
  <scstep>
   <time name="dav">    1.08    1.08</time>
   <time name="total">    1.17    1.17</time>
   <energy>
    <i name="e_fr_energy">   -163.89899785 </i>
    <i name="e_wo_entrp">   -163.74414905 </i>
    <i name="e_0_energy">   -163.82157345 </i>
   </energy>
  </scstep>
  <scstep>
   <time name="dav">    1.07    1.07</time>
   <time name="total">    1.16    1.16</time>
   <energy>
    <i name="e_fr_energy">   -163.87352805 </i>
    <i name="e_wo_entrp">   -163.72346079 </i>
    <i name="e_0_energy">   -163.79849442 </i>
   </energy>
  </scstep>
  <scstep>
   <time name="dav">    1.11    1.11</time>
   <time name="total">    1.20    1.20</time>
   <energy>
    <i name="e_fr_energy">   -163.87258349 </i>
    <i name="e_wo_entrp">   -163.72140111 </i>
    <i name="e_0_energy">   -163.79699230 </i>
   </energy>
  </scstep>
  <scstep>
   <time name="dav">    1.26    1.27</time>
   <time name="total">    1.36    1.36</time>
   <energy>
    <i name="e_fr_energy">   -163.86947961 </i>
    <i name="e_wo_entrp">   -163.71708134 </i>
    <i name="e_0_energy">   -163.79328048 </i>
   </energy>
  </scstep>
  <scstep>
   <time name="dav">    1.17    1.17</time>
   <time name="total">    1.26    1.26</time>
   <energy>
    <i name="e_fr_energy">   -163.86887413 </i>
    <i name="e_wo_entrp">   -163.71619263 </i>
    <i name="e_0_energy">   -163.79253338 </i>
   </energy>
  </scstep>
  <scstep>
   <time name="dav">    1.15    1.15</time>
   <time name="total">    1.24    1.24</time>
   <energy>
    <i name="e_fr_energy">   -163.86866883 </i>
    <i name="e_wo_entrp">   -163.71574350 </i>
    <i name="e_0_energy">   -163.79220617 </i>
   </energy>
  </scstep>
  <scstep>
   <time name="dav">    1.09    1.10</time>
   <time name="total">    1.18    1.19</time>
   <energy>
    <i name="e_fr_energy">   -163.86863590 </i>
    <i name="e_wo_entrp">   -163.71555050 </i>
    <i name="e_0_energy">   -163.79209320 </i>
   </energy>
  </scstep>
  <scstep>
   <time name="dav">    0.70    0.71</time>
   <time name="total">    0.75    0.75</time>
   <energy>
    <i name="alphaZ">    517.42635938 </i>
    <i name="ewald">  -5075.04881201 </i>
    <i name="hartreedc">   -749.00675796 </i>
    <i name="XCdc">   -771.57761898 </i>
    <i name="pawpsdc">   7790.97295584 </i>
    <i name="pawaedc">  -6987.00427572 </i>
    <i name="eentropy">     -0.15300018 </i>
    <i name="bandstr">    423.03828424 </i>
    <i name="atom">   4687.48422623 </i>
    <i name="e_fr_energy">   -163.86863917 </i>
    <i name="e_wo_entrp">   -163.71563899 </i>
    <i name="e_0_energy">   -163.79213908 </i>
   </energy>
  </scstep>
  <structure>
   <crystal>
    <varray name="basis" >
     <v>       6.55793669       0.19520267       0.18363562 </v>
     <v>       0.62087913       6.53139637       0.18363559 </v>
     <v>       0.62087914       0.58176760       6.50802644 </v>
    </varray>
    <i name="volume">    276.60948323 </i>
    <varray name="rec_basis" >
     <v>       0.15328349      -0.01419576      -0.01335457 </v>
     <v>      -0.00420648       0.15388196      -0.01335456 </v>
     <v>      -0.00420648      -0.00394150       0.15441006 </v>
    </varray>
   </crystal>
   <varray name="positions" >
    <v>       0.51190312       0.67256649       0.20546438 </v>
    <v>       0.20546438       0.51190312       0.67256649 </v>
    <v>       0.67256649       0.20546438       0.51190312 </v>
    <v>       0.48809688       0.32743351       0.79453562 </v>
    <v>       0.79453562       0.48809688       0.32743351 </v>
    <v>       0.32743351       0.79453562       0.48809688 </v>
    <v>       0.20105370       0.20105370       0.20105370 </v>
    <v>       0.79894630       0.79894630       0.79894630 </v>
    <v>      -0.00000000       0.00000000       0.00000000 </v>
    <v>       0.63416909       0.98370848       0.30221508 </v>
    <v>       0.30221508       0.63416909       0.98370848 </v>
    <v>       0.98370848       0.30221508       0.63416909 </v>
    <v>       0.36583091       0.01629152       0.69778492 </v>
    <v>       0.69778492       0.36583091       0.01629152 </v>
    <v>       0.01629152       0.69778492       0.36583091 </v>
    <v>       0.65398770       0.65398770       0.65398770 </v>
    <v>       0.34601230       0.34601230       0.34601230 </v>
    <v>      -0.00000000       0.00000000       0.50000000 </v>
    <v>       0.50000000       0.00000000       0.00000000 </v>
    <v>      -0.00000000       0.50000000       0.00000000 </v>
   </varray>
  </structure>
  <varray name="forces" >
   <v>      -0.06447716      -0.00121495      -1.45282985 </v>
   <v>      -1.45132281       0.02988279       0.08742303 </v>
   <v>      -0.00540174      -1.45404408       0.02449354 </v>
   <v>       0.06447716       0.00121495       1.45282985 </v>
   <v>       1.45132281      -0.02988279      -0.08742303 </v>
   <v>       0.00540174       1.45404408      -0.02449354 </v>
   <v>      -1.03750917      -0.97215308      -0.91454659 </v>
   <v>       1.03750917       0.97215308       0.91454659 </v>
   <v>       0.00000000       0.00000000      -0.00000000 </v>
   <v>       0.50431323       0.06800847      -0.38434778 </v>
   <v>      -0.34591413       0.52790370       0.09133046 </v>
   <v>       0.10063150      -0.35319876       0.52134836 </v>
   <v>      -0.50431323      -0.06800847       0.38434778 </v>
   <v>       0.34591413      -0.52790370      -0.09133046 </v>
   <v>      -0.10063150       0.35319876      -0.52134836 </v>
   <v>      -0.43444890      -0.40708154      -0.38295927 </v>
   <v>       0.43444890       0.40708154       0.38295927 </v>
   <v>       0.00000000       0.00000000      -0.00000000 </v>
   <v>       0.00000000       0.00000000      -0.00000000 </v>
   <v>       0.00000000       0.00000000      -0.00000000 </v>
  </varray>
  <varray name="stress" >
   <v>      13.90018299      45.76477345      43.05290821 </v>
   <v>      45.76477333       7.94063357      40.34086687 </v>
   <v>      43.05290834      40.34086674       3.00913390 </v>
  </varray>
  <energy>
   <i name="e_fr_energy">   -163.86863917 </i>
   <i name="e_wo_entrp">   -163.79213908 </i>
   <i name="e_0_energy">     -0.15300018 </i>
  </energy>
  <time name="totalsc">   21.90   21.93</time>
 </calculation>
 <calculation>
  <scstep>
   <time name="dav">    0.92    0.92</time>
   <time name="total">    1.01    1.01</time>
   <energy>
    <i name="alphaZ">    549.68317222 </i>
    <i name="ewald">  -5182.02707569 </i>
    <i name="hartreedc">   -768.32646559 </i>
    <i name="XCdc">   -767.73022986 </i>
    <i name="pawpsdc">   7790.87602008 </i>
    <i name="pawaedc">  -6986.91467323 </i>
    <i name="eentropy">     -0.12816604 </i>
    <i name="bandstr">    509.91155122 </i>
    <i name="atom">   4687.48422623 </i>
    <i name="e_fr_energy">   -167.17164068 </i>
    <i name="e_wo_entrp">   -167.04347463 </i>
    <i name="e_0_energy">   -167.10755766 </i>
   </energy>
  </scstep>
  <scstep>
   <time name="dav">    1.21    1.21</time>
   <time name="total">    1.30    1.30</time>
   <energy>
    <i name="e_fr_energy">   -200.51227034 </i>
    <i name="e_wo_entrp">   -200.46478643 </i>
    <i name="e_0_energy">   -200.48852838 </i>
   </energy>
  </scstep>
  <scstep>
   <time name="dav">    1.17    1.17</time>
   <time name="total">    1.26    1.26</time>
   <energy>
    <i name="e_fr_energy">   -164.35195380 </i>
    <i name="e_wo_entrp">   -164.25108731 </i>
    <i name="e_0_energy">   -164.30152056 </i>
   </energy>
  </scstep>
  <scstep>
   <time name="dav">    1.20    1.20</time>
   <time name="total">    1.29    1.29</time>
   <energy>
    <i name="e_fr_energy">   -165.64445241 </i>
    <i name="e_wo_entrp">   -165.47987925 </i>
    <i name="e_0_energy">   -165.56216583 </i>
   </energy>
  </scstep>
  <scstep>
   <time name="dav">    1.07    1.07</time>
   <time name="total">    1.16    1.16</time>
   <energy>
    <i name="e_fr_energy">   -164.67585939 </i>
    <i name="e_wo_entrp">   -164.53326723 </i>
    <i name="e_0_energy">   -164.60456331 </i>
   </energy>
  </scstep>
  <scstep>
   <time name="dav">    1.19    1.19</time>
   <time name="total">    1.28    1.28</time>
   <energy>
    <i name="e_fr_energy">   -164.60419645 </i>
    <i name="e_wo_entrp">   -164.43757701 </i>
    <i name="e_0_energy">   -164.52088673 </i>
   </energy>
  </scstep>
  <scstep>
   <time name="dav">    1.14    1.14</time>
   <time name="total">    1.23    1.23</time>
   <energy>
    <i name="e_fr_energy">   -164.46508636 </i>
    <i name="e_wo_entrp">   -164.33697572 </i>
    <i name="e_0_energy">   -164.40103104 </i>
   </energy>
  </scstep>
  <scstep>
   <time name="dav">    1.05    1.05</time>
   <time name="total">    1.14    1.14</time>
   <energy>
    <i name="e_fr_energy">   -164.44323671 </i>
    <i name="e_wo_entrp">   -164.30959769 </i>
    <i name="e_0_energy">   -164.37641720 </i>
   </energy>
  </scstep>
  <scstep>
   <time name="dav">    1.19    1.19</time>
   <time name="total">    1.28    1.28</time>
   <energy>
    <i name="e_fr_energy">   -164.42354655 </i>
    <i name="e_wo_entrp">   -164.28125816 </i>
    <i name="e_0_energy">   -164.35240235 </i>
   </energy>
  </scstep>
  <scstep>
   <time name="dav">    1.27    1.27</time>
   <time name="total">    1.36    1.36</time>
   <energy>
    <i name="e_fr_energy">   -164.40672653 </i>
    <i name="e_wo_entrp">   -164.26079665 </i>
    <i name="e_0_energy">   -164.33376159 </i>
   </energy>
  </scstep>
  <scstep>
   <time name="dav">    1.04    1.04</time>
   <time name="total">    1.13    1.13</time>
   <energy>
    <i name="e_fr_energy">   -164.40586131 </i>
    <i name="e_wo_entrp">   -164.26053226 </i>
    <i name="e_0_energy">   -164.33319679 </i>
   </energy>
  </scstep>
  <scstep>
   <time name="dav">    1.12    1.13</time>
   <time name="total">    1.21    1.22</time>
   <energy>
    <i name="e_fr_energy">   -164.40553792 </i>
    <i name="e_wo_entrp">   -164.26028973 </i>
    <i name="e_0_energy">   -164.33291383 </i>
   </energy>
  </scstep>
  <scstep>
   <time name="dav">    1.06    1.07</time>
   <time name="total">    1.16    1.16</time>
   <energy>
    <i name="e_fr_energy">   -164.40544183 </i>
    <i name="e_wo_entrp">   -164.25970003 </i>
    <i name="e_0_energy">   -164.33257093 </i>
   </energy>
  </scstep>
  <scstep>
   <time name="dav">    1.20    1.20</time>
   <time name="total">    1.29    1.29</time>
   <energy>
    <i name="e_fr_energy">   -164.40538066 </i>
    <i name="e_wo_entrp">   -164.25933817 </i>
    <i name="e_0_energy">   -164.33235941 </i>
   </energy>
  </scstep>
  <scstep>
   <time name="dav">    0.61    0.61</time>
   <time name="total">    0.66    0.66</time>
   <energy>
    <i name="alphaZ">    549.68317222 </i>
    <i name="ewald">  -5182.02707569 </i>
    <i name="hartreedc">   -724.54981106 </i>
    <i name="XCdc">   -768.96543599 </i>
    <i name="pawpsdc">   8245.84837903 </i>
    <i name="pawaedc">  -7445.41489423 </i>
    <i name="eentropy">     -0.14605296 </i>
    <i name="bandstr">    473.68211127 </i>
    <i name="atom">   4687.48422623 </i>
    <i name="e_fr_energy">   -164.40538119 </i>
    <i name="e_wo_entrp">   -164.25932822 </i>
    <i name="e_0_energy">   -164.33235470 </i>
   </energy>
  </scstep>
  <structure>
   <crystal>
    <varray name="basis" >
     <v>       6.43941475       0.25866372       0.24333619 </v>
     <v>       0.67650535       6.40900165       0.24333615 </v>
     <v>       0.67650536       0.63388977       6.38221744 </v>
    </varray>
    <i name="volume">    260.37733209 </i>
    <varray name="rec_basis" >
     <v>       0.15650131      -0.01594988      -0.01500474 </v>
     <v>      -0.00574781       0.15720695      -0.01500473 </v>
     <v>      -0.00574781      -0.00538574       0.15782953 </v>
    </varray>
   </crystal>
   <varray name="positions" >
    <v>       0.51278988       0.67729367       0.19461541 </v>
    <v>       0.19461541       0.51278988       0.67729367 </v>
    <v>       0.67729367       0.19461541       0.51278988 </v>
    <v>       0.48721012       0.32270633       0.80538459 </v>
    <v>       0.80538459       0.48721012       0.32270633 </v>
    <v>       0.32270633       0.80538459       0.48721012 </v>
    <v>       0.19633082       0.19633082       0.19633082 </v>
    <v>       0.80366918       0.80366918       0.80366918 </v>
    <v>      -0.00000000       0.00000000       0.00000000 </v>
    <v>       0.63566134       0.98368186       0.30084497 </v>
    <v>       0.30084497       0.63566134       0.98368186 </v>
    <v>       0.98368186       0.30084497       0.63566134 </v>
    <v>       0.36433866       0.01631814       0.69915503 </v>
[...]
       <r>    7.0786    0.0000 </r>
       <r>    7.0963    0.0000 </r>
       <r>    7.1167    0.0000 </r>
       <r>    7.2667    0.0000 </r>
       <r>    7.2927    0.0000 </r>
       <r>    7.3815    0.0000 </r>
       <r>    7.4915    0.0000 </r>
       <r>    7.5492    0.0000 </r>
      </set>
      <set comment="kpoint 4">
       <r>    1.0043    1.0000 </r>
       <r>    1.3261    1.0000 </r>
       <r>    2.3260    1.0000 </r>
       <r>    2.3260    1.0000 </r>
       <r>    2.5682    1.0000 </r>
       <r>    2.5923    1.0000 </r>
       <r>    2.5923    1.0000 </r>
       <r>    2.6787    1.0000 </r>
       <r>    2.8856    1.0000 </r>
       <r>    2.8856    1.0000 </r>
       <r>    3.1673    1.0000 </r>
       <r>    3.3299    1.0000 </r>
       <r>    3.3299    1.0000 </r>
       <r>    3.3515    1.0000 </r>
       <r>    3.3515    1.0000 </r>
       <r>    3.6519    1.0000 </r>
       <r>    3.7274    1.0000 </r>
       <r>    3.8280    1.0000 </r>
       <r>    3.8280    1.0000 </r>
       <r>    3.9787    1.0000 </r>
       <r>    3.9787    1.0000 </r>
       <r>    4.1304    1.0000 </r>
       <r>    4.1304    1.0000 </r>
       <r>    4.4097    1.0000 </r>
       <r>    4.4215    1.0000 </r>
       <r>    4.4215    1.0000 </r>
       <r>    4.4762    1.0000 </r>
       <r>    4.5846    1.0000 </r>
       <r>    4.5846    1.0000 </r>
       <r>    4.6425    1.0000 </r>
       <r>    4.6425    1.0000 </r>
       <r>    4.6580    1.0000 </r>
       <r>    4.7127    1.0000 </r>
       <r>    4.8583    1.0000 </r>
       <r>    5.1600    1.0000 </r>
       <r>    5.1870    1.0000 </r>
       <r>    5.1870    1.0000 </r>
       <r>    5.2295    1.0000 </r>
       <r>    5.2979    1.0000 </r>
       <r>    5.2979    1.0000 </r>
       <r>    5.6522    1.0000 </r>
       <r>    5.6522    1.0000 </r>
       <r>    5.6618    1.0000 </r>
       <r>    5.7381    1.0000 </r>
       <r>    5.7899    1.0000 </r>
       <r>    5.7899    1.0000 </r>
       <r>    5.8071    1.0000 </r>
       <r>    5.9071    1.0000 </r>
       <r>    5.9071    1.0000 </r>
       <r>    5.9437    1.0000 </r>
       <r>    6.0911    1.0000 </r>
       <r>    6.0911    1.0000 </r>
       <r>    6.1423    1.0000 </r>
       <r>    6.1423    1.0000 </r>
       <r>    6.3634    0.9672 </r>
       <r>    6.4501    0.7305 </r>
       <r>    6.8165    0.0000 </r>
       <r>    6.8165    0.0000 </r>
       <r>    6.9401    0.0000 </r>
       <r>    6.9401    0.0000 </r>
       <r>    7.0057    0.0000 </r>
       <r>    7.1893    0.0000 </r>
       <r>    7.1893    0.0000 </r>
       <r>    7.3775    0.0000 </r>
       <r>    7.3797    0.0000 </r>
       <r>    7.3797    0.0000 </r>
       <r>    7.4158    0.0000 </r>
       <r>    7.4816    0.0000 </r>
      </set>
     </set>
    </set>
   </array>
  </eigenvalues>
  <separator name="orbital magnetization" >
   <v name="MAGDIPOLOUT">      0.00000000      0.00000000      0.00000000</v>
  </separator>
  <dos>
   <i name="efermi">      6.49353475 </i>
   <total>
    <array>
     <dimension dim="1">gridpoints</dimension>
     <dimension dim="2">spin</dimension>
     <field>energy</field>
     <field>total</field>
     <field>integrated</field>
     <set>
      <set comment="spin 1">
       <r>    -1.5249     0.0000     0.0000 </r>
       <r>    -1.4913     0.0000     0.0000 </r>
       <r>    -1.4577     0.0000     0.0000 </r>
       <r>    -1.4241     0.0000     0.0000 </r>
       <r>    -1.3905     0.0000     0.0000 </r>
       <r>    -1.3570     0.0000     0.0000 </r>
       <r>    -1.3234     0.0000     0.0000 </r>
       <r>    -1.2898     0.0000     0.0000 </r>
       <r>    -1.2562     0.0000     0.0000 </r>
       <r>    -1.2226     0.0000     0.0000 </r>
       <r>    -1.1891     0.0000     0.0000 </r>
       <r>    -1.1555     0.0000     0.0000 </r>
       <r>    -1.1219     0.0000     0.0000 </r>
       <r>    -1.0883     0.0000     0.0000 </r>
       <r>    -1.0547     0.0000     0.0000 </r>
       <r>    -1.0212     0.0000     0.0000 </r>
       <r>    -0.9876     0.0000     0.0000 </r>
       <r>    -0.9540     0.0000     0.0000 </r>
       <r>    -0.9204     0.0000     0.0000 </r>
       <r>    -0.8868     0.0000     0.0000 </r>
       <r>    -0.8533     0.0000     0.0000 </r>
       <r>    -0.8197     0.0001     0.0000 </r>
       <r>    -0.7861     0.0007     0.0000 </r>
       <r>    -0.7525     0.0040     0.0002 </r>
       <r>    -0.7189     0.0178     0.0008 </r>
       <r>    -0.6853     0.0639     0.0029 </r>
       <r>    -0.6518     0.1841     0.0091 </r>
       <r>    -0.6182     0.4250     0.0234 </r>
       <r>    -0.5846     0.7863     0.0498 </r>
       <r>    -0.5510     1.1658     0.0889 </r>
       <r>    -0.5174     1.3853     0.1354 </r>
       <r>    -0.4839     1.3193     0.1797 </r>
       <r>    -0.4503     1.0070     0.2135 </r>
       <r>    -0.4167     0.6160     0.2342 </r>
       <r>    -0.3831     0.3020     0.2444 </r>
       <r>    -0.3495     0.1186     0.2484 </r>
       <r>    -0.3160     0.0373     0.2496 </r>
       <r>    -0.2824     0.0094     0.2499 </r>
       <r>    -0.2488     0.0019     0.2500 </r>
       <r>    -0.2152     0.0003     0.2500 </r>
       <r>    -0.1816     0.0000     0.2500 </r>
       <r>    -0.1481     0.0000     0.2500 </r>
       <r>    -0.1145     0.0000     0.2500 </r>
       <r>    -0.0809     0.0000     0.2500 </r>
       <r>    -0.0473     0.0000     0.2500 </r>
       <r>    -0.0137     0.0000     0.2500 </r>
       <r>     0.0198     0.0000     0.2500 </r>
       <r>     0.0534     0.0000     0.2500 </r>
       <r>     0.0870     0.0000     0.2500 </r>
       <r>     0.1206     0.0000     0.2500 </r>
       <r>     0.1542     0.0000     0.2500 </r>
       <r>     0.1877     0.0000     0.2500 </r>
       <r>     0.2213     0.0003     0.2500 </r>
       <r>     0.2549     0.0023     0.2501 </r>
       <r>     0.2885     0.0126     0.2505 </r>
       <r>     0.3221     0.0562     0.2524 </r>
       <r>     0.3556     0.2006     0.2591 </r>
       <r>     0.3892     0.5740     0.2784 </r>
       <r>     0.4228     1.3196     0.3227 </r>
       <r>     0.4564     2.4471     0.4049 </r>
       <r>     0.4900     3.6948     0.5290 </r>
       <r>     0.5235     4.6422     0.6849 </r>
       <r>     0.5571     5.0728     0.8552 </r>
       <r>     0.5907     5.1570     1.0284 </r>
       <r>     0.6243     5.1481     1.2012 </r>
       <r>     0.6579     4.9847     1.3686 </r>
       <r>     0.6914     4.3865     1.5159 </r>
       <r>     0.7250     3.2995     1.6267 </r>
       <r>     0.7586     2.0490     1.6955 </r>
       <r>     0.7922     1.0450     1.7306 </r>
       <r>     0.8258     0.4868     1.7470 </r>
       <r>     0.8593     0.3836     1.7599 </r>
       <r>     0.8929     0.7450     1.7849 </r>
       <r>     0.9265     1.6473     1.8402 </r>
       <r>     0.9601     3.0715     1.9433 </r>
       <r>     0.9937     4.6905     2.1008 </r>
       <r>     1.0272     5.9417     2.3004 </r>
       <r>     1.0608     6.4528     2.5170 </r>
       <r>     1.0944     6.3459     2.7301 </r>
       <r>     1.1280     5.9819     2.9310 </r>
       <r>     1.1616     5.4854     3.1152 </r>
       <r>     1.1951     4.7291     3.2740 </r>
       <r>     1.2287     3.7271     3.3992 </r>
       <r>     1.2623     2.7746     3.4923 </r>
       <r>     1.2959     2.1377     3.5641 </r>
       <r>     1.3295     1.7797     3.6239 </r>
       <r>     1.3630     1.4742     3.6734 </r>
       <r>     1.3966     1.0867     3.7099 </r>
       <r>     1.4302     0.6684     3.7323 </r>
       <r>     1.4638     0.3342     3.7436 </r>
       <r>     1.4974     0.1345     3.7481 </r>
       <r>     1.5309     0.0435     3.7495 </r>
       <r>     1.5645     0.0114     3.7499 </r>
       <r>     1.5981     0.0036     3.7500 </r>
       <r>     1.6317     0.0077     3.7503 </r>
       <r>     1.6653     0.0353     3.7515 </r>
       <r>     1.6988     0.1355     3.7560 </r>
       <r>     1.7324     0.4183     3.7701 </r>
       <r>     1.7660     1.0400     3.8050 </r>
       <r>     1.7996     2.0937     3.8753 </r>
       <r>     1.8332     3.4504     3.9912 </r>
       <r>     1.8667     4.7508     4.1507 </r>
       <r>     1.9003     5.6463     4.3403 </r>
       <r>     1.9339     6.0259     4.5427 </r>
       <r>     1.9675     5.9275     4.7417 </r>
       <r>     2.0011     5.3333     4.9208 </r>
       <r>     2.0346     4.2392     5.0632 </r>
       <r>     2.0682     2.8662     5.1594 </r>
       <r>     2.1018     1.6106     5.2135 </r>
       <r>     2.1354     0.7697     5.2393 </r>
       <r>     2.1690     0.4116     5.2532 </r>
       <r>     2.2025     0.4842     5.2694 </r>
       <r>     2.2361     0.9330     5.3007 </r>
       <r>     2.2697     1.6573     5.3564 </r>
       <r>     2.3033     2.3989     5.4370 </r>
       <r>     2.3369     2.7935     5.5308 </r>
       <r>     2.3704     2.6382     5.6193 </r>
       <r>     2.4040     2.1288     5.6908 </r>
       <r>     2.4376     1.8367     5.7525 </r>
       <r>     2.4712     2.5011     5.8365 </r>
       <r>     2.5048     4.7815     5.9971 </r>
       <r>     2.5383     8.8926     6.2957 </r>
       <r>     2.5719    14.1655     6.7714 </r>
       <r>     2.6055    19.0710     7.4118 </r>
       <r>     2.6391    22.0805     8.1532 </r>
       <r>     2.6727    22.6757     8.9147 </r>
       <r>     2.7062    21.3865     9.6328 </r>
       <r>     2.7398    18.9678    10.2698 </r>
       <r>     2.7734    15.9837    10.8065 </r>
       <r>     2.8070    13.2129    11.2502 </r>
       <r>     2.8406    11.8401    11.6478 </r>
       <r>     2.8741    12.7653    12.0765 </r>
       <r>     2.9077    15.7934    12.6068 </r>
       <r>     2.9413    19.6748    13.2675 </r>
       <r>     2.9749    22.9394    14.0378 </r>
       <r>     3.0085    24.7409    14.8686 </r>
       <r>     3.0420    25.1229    15.7122 </r>
       <r>     3.0756    24.7399    16.5430 </r>
       <r>     3.1092    24.3829    17.3618 </r>
       <r>     3.1428    24.5366    18.1857 </r>
       <r>     3.1764    25.1600    19.0306 </r>
       <r>     3.2099    25.9739    19.9028 </r>
       <r>     3.2435    27.0601    20.8115 </r>
       <r>     3.2771    28.9393    21.7833 </r>
       <r>     3.3107    31.7820    22.8505 </r>
       <r>     3.3443    34.6885    24.0154 </r>
       <r>     3.3778    36.1507    25.2293 </r>
       <r>     3.4114    35.3393    26.4160 </r>
       <r>     3.4450    32.7336    27.5152 </r>
       <r>     3.4786    29.4781    28.5051 </r>
       <r>     3.5122    26.4142    29.3921 </r>
       <r>     3.5457    23.8145    30.1918 </r>
       <r>     3.5793    21.7419    30.9219 </r>
       <r>     3.6129    20.3469    31.6051 </r>
       <r>     3.6465    19.7544    32.2685 </r>
       <r>     3.6801    19.8059    32.9336 </r>
       <r>     3.7136    20.1027    33.6086 </r>
       <r>     3.7472    20.3686    34.2926 </r>
       <r>     3.7808    20.6886    34.9873 </r>
       <r>     3.8144    21.3536    35.7044 </r>
       <r>     3.8480    22.5044    36.4601 </r>
       <r>     3.8815    23.8819    37.2620 </r>
       <r>     3.9151    24.8486    38.0965 </r>
       <r>     3.9487    24.7617    38.9280 </r>
       <r>     3.9823    23.5633    39.7192 </r>
       <r>     4.0159    22.1170    40.4619 </r>
       <r>     4.0494    21.7853    41.1935 </r>
       <r>     4.0830    23.2993    41.9759 </r>
       <r>     4.1166    25.8615    42.8443 </r>
       <r>     4.1502    27.6381    43.7724 </r>
       <r>     4.1838    27.4926    44.6956 </r>
       <r>     4.2174    26.1907    45.5751 </r>
       <r>     4.2509    25.6901    46.4377 </r>
       <r>     4.2845    27.3287    47.3554 </r>
       <r>     4.3181    30.8756    48.3923 </r>
       <r>     4.3517    35.0761    49.5701 </r>
       <r>     4.3853    38.5726    50.8654 </r>
       <r>     4.4188    40.2880    52.2183 </r>
       <r>     4.4524    39.6583    53.5500 </r>
       <r>     4.4860    37.1102    54.7962 </r>
       <r>     4.5196    34.1346    55.9424 </r>
       <r>     4.5532    32.3821    57.0298 </r>
       <r>     4.5867    32.4858    58.1207 </r>
       <r>     4.6203    33.7700    59.2547 </r>
       <r>     4.6539    34.9592    60.4286 </r>
       <r>     4.6875    35.0380    61.6052 </r>
       <r>     4.7211    33.6198    62.7341 </r>
       <r>     4.7546    30.8566    63.7703 </r>
       <r>     4.7882    27.2226    64.6845 </r>
       <r>     4.8218    23.3962    65.4701 </r>
       <r>     4.8554    20.1870    66.1480 </r>
       <r>     4.8890    18.2977    66.7624 </r>
       <r>     4.9225    17.9968    67.3668 </r>
       <r>     4.9561    19.1406    68.0095 </r>
       <r>     4.9897    21.6073    68.7351 </r>
       <r>     5.0233    25.4539    69.5898 </r>
       <r>     5.0569    30.3477    70.6089 </r>
       <r>     5.0904    35.0569    71.7861 </r>
       <r>     5.1240    38.0754    73.0647 </r>
       <r>     5.1576    38.9194    74.3716 </r>
       <r>     5.1912    38.4595    75.6631 </r>
       <r>     5.2248    37.8418    76.9338 </r>
       <r>     5.2583    37.3985    78.1897 </r>
       <r>     5.2919    36.7297    79.4231 </r>
       <r>     5.3255    35.4829    80.6146 </r>
       <r>     5.3591    33.7397    81.7476 </r>
       <r>     5.3927    31.7351    82.8132 </r>
       <r>     5.4262    29.4714    83.8029 </r>
       <r>     5.4598    26.7644    84.7016 </r>
       <r>     5.4934    23.6523    85.4959 </r>
       <r>     5.5270    20.6678    86.1899 </r>
       <r>     5.5606    18.6823    86.8173 </r>
       <r>     5.5941    18.4706    87.4375 </r>
       <r>     5.6277    20.2184    88.1165 </r>
       <r>     5.6613    23.1998    88.8955 </r>
       <r>     5.6949    26.0644    89.7707 </r>
       <r>     5.7285    27.7797    90.7036 </r>
       <r>     5.7620    28.3318    91.6550 </r>
       <r>     5.7956    28.4174    92.6092 </r>
       <r>     5.8292    28.6114    93.5700 </r>
       <r>     5.8628    28.9586    94.5425 </r>
       <r>     5.8964    29.1681    95.5219 </r>
       <r>     5.9299    28.9670    96.4946 </r>
       <r>     5.9635    28.2895    97.4446 </r>
       <r>     5.9971    27.2763    98.3605 </r>
       <r>     6.0307    26.1594    99.2390 </r>
       <r>     6.0643    25.1118   100.0822 </r>
       <r>     6.0978    24.0977   100.8914 </r>
       <r>     6.1314    22.7931   101.6568 </r>
       <r>     6.1650    20.7587   102.3539 </r>
       <r>     6.1986    17.9201   102.9557 </r>
       <r>     6.2322    14.9830   103.4588 </r>
       <r>     6.2657    13.2197   103.9027 </r>
       <r>     6.2993    13.6100   104.3597 </r>
       <r>     6.3329    16.1161   104.9009 </r>
       <r>     6.3665    19.8212   105.5665 </r>
       <r>     6.4001    23.6630   106.3611 </r>
       <r>     6.4336    26.8694   107.2634 </r>
       <r>     6.4672    28.8388   108.2318 </r>
       <r>     6.5008    29.1046   109.2092 </r>
       <r>     6.5344    27.7095   110.1396 </r>
       <r>     6.5680    25.3745   110.9917 </r>
       <r>     6.6015    23.0255   111.7649 </r>
       <r>     6.6351    21.2793   112.4795 </r>
       <r>     6.6687    20.5249   113.1687 </r>
       <r>     6.7023    21.1396   113.8786 </r>
       <r>     6.7359    23.0550   114.6528 </r>
       <r>     6.7694    25.1214   115.4963 </r>
       <r>     6.8030    25.5674   116.3549 </r>
       <r>     6.8366    23.5600   117.1461 </r>
       <r>     6.8702    20.1186   117.8216 </r>
       <r>     6.9038    17.3043   118.4027 </r>
       <r>     6.9373    16.7652   118.9657 </r>
       <r>     6.9709    19.0425   119.6051 </r>
       <r>     7.0045    23.5334   120.3954 </r>
       <r>     7.0381    28.5689   121.3547 </r>
       <r>     7.0717    31.9781   122.4286 </r>
       <r>     7.1052    32.3968   123.5165 </r>
       <r>     7.1388    30.3034   124.5341 </r>
       <r>     7.1724    27.6283   125.4618 </r>
       <r>     7.2060    26.2778   126.3442 </r>
       <r>     7.2396    26.8874   127.2471 </r>
       <r>     7.2731    28.5831   128.2069 </r>
       <r>     7.3067    29.7032   129.2044 </r>
       <r>     7.3403    29.0302   130.1792 </r>
       <r>     7.3739    26.6973   131.0757 </r>
       <r>     7.4075    24.0150   131.8821 </r>
       <r>     7.4410    22.3428   132.6324 </r>
       <r>     7.4746    21.9107   133.3682 </r>
       <r>     7.5082    21.5562   134.0920 </r>
       <r>     7.5418    19.7078   134.7538 </r>
       <r>     7.5754    15.8023   135.2845 </r>
       <r>     7.6089    10.7566   135.6457 </r>
       <r>     7.6425     6.1114   135.8509 </r>
       <r>     7.6761     2.8706   135.9473 </r>
       <r>     7.7097     1.1078   135.9845 </r>
       <r>     7.7433     0.3496   135.9962 </r>
       <r>     7.7768     0.0899   135.9992 </r>
       <r>     7.8104     0.0188   135.9999 </r>
       <r>     7.8440     0.0032   136.0000 </r>
       <r>     7.8776     0.0004   136.0000 </r>
       <r>     7.9112     0.0000   136.0000 </r>
       <r>     7.9447     0.0000   136.0000 </r>
       <r>     7.9783     0.0000   136.0000 </r>
       <r>     8.0119     0.0000   136.0000 </r>
       <r>     8.0455     0.0000   136.0000 </r>
       <r>     8.0791     0.0000   136.0000 </r>
       <r>     8.1126     0.0000   136.0000 </r>
       <r>     8.1462     0.0000   136.0000 </r>
       <r>     8.1798     0.0000   136.0000 </r>
       <r>     8.2134     0.0000   136.0000 </r>
       <r>     8.2470     0.0000   136.0000 </r>
       <r>     8.2805     0.0000   136.0000 </r>
       <r>     8.3141     0.0000   136.0000 </r>
       <r>     8.3477     0.0000   136.0000 </r>
       <r>     8.3813     0.0000   136.0000 </r>
       <r>     8.4149     0.0000   136.0000 </r>
       <r>     8.4484     0.0000   136.0000 </r>
       <r>     8.4820     0.0000   136.0000 </r>
       <r>     8.5156     0.0000   136.0000 </r>
       <r>     8.5492     0.0000   136.0000 </r>
      </set>
     </set>
    </array>
   </total>
  </dos>
 </calculation>
 <structure name="finalpos" >
  <crystal>
   <varray name="basis" >
    <v>       6.58109441       0.78661251       0.74000047 </v>
    <v>       1.21254385       6.51607947       0.74000042 </v>
    <v>       1.21254393       1.13616153       6.45879479 </v>
   </varray>
   <i name="volume">    261.15704274 </i>
   <varray name="rec_basis" >
    <v>       0.15793279      -0.02655218      -0.02497879 </v>
    <v>      -0.01623471       0.15932427      -0.02497878 </v>
    <v>      -0.01623471      -0.01521203       0.16055141 </v>
   </varray>
  </crystal>
  <varray name="positions" >
   <v>       0.50050693       0.63644538       0.19301605 </v>
   <v>       0.19301605       0.50050693       0.63644538 </v>
   <v>       0.63644538       0.19301605       0.50050693 </v>
   <v>       0.49949307       0.36355462       0.80698395 </v>
   <v>       0.80698395       0.49949307       0.36355462 </v>
   <v>       0.36355462       0.80698395       0.49949307 </v>
   <v>       0.15145488       0.15145488       0.15145488 </v>
   <v>       0.84854512       0.84854512       0.84854512 </v>
   <v>       0.00000000      -0.00000000       0.00000000 </v>
   <v>       0.65631945       0.94736926       0.28910202 </v>
   <v>       0.28910202       0.65631945       0.94736926 </v>
   <v>       0.94736926       0.28910202       0.65631945 </v>
   <v>       0.34368055       0.05263074       0.71089798 </v>
   <v>       0.71089798       0.34368055       0.05263074 </v>
   <v>       0.05263074       0.71089798       0.34368055 </v>
   <v>       0.69516657       0.69516657       0.69516657 </v>
   <v>       0.30483343       0.30483343       0.30483343 </v>
   <v>       0.00000000      -0.00000000       0.50000000 </v>
   <v>       0.50000000      -0.00000000       0.00000000 </v>
   <v>       0.00000000       0.50000000       0.00000000 </v>
  </varray>
 </structure>
</modeling>
