unknown system                          
           1
     6.387867    0.000000    0.000000
     0.415039    6.374369    0.000000
     0.415039    0.388894    6.362495
   V    Fe
  17   3
Direct configuration=     1
   0.50327600  0.63282000  0.26374100
   0.26374100  0.50327600  0.63282000
   0.63282000  0.26374100  0.50327600
   0.49672400  0.36718000  0.73625900
   0.73625900  0.49672400  0.36718000
   0.36718000  0.73625900  0.49672400
   0.21885600  0.21885600  0.21885600
   0.78114400  0.78114400  0.78114400
   0.00000000  0.00000000  0.00000000
   0.62584100  0.98529000  0.30672800
   0.30672800  0.62584100  0.98529000
   0.98529000  0.30672800  0.62584100
   0.37415900  0.01471000  0.69327200
   0.69327200  0.37415900  0.01471000
   0.01471000  0.69327200  0.37415900
   0.62802100  0.62802100  0.62802100
   0.37197900  0.37197900  0.37197900
   0.00000000  0.00000000  0.50000000
   0.50000000  0.00000000  0.00000000
   0.00000000  0.50000000  0.00000000
unknown system                          
           1
     7.078655    0.119304    0.112234
     0.578974    7.055946    0.112234
     0.578974    0.542502    7.035955
   V    Fe
  17   3
Direct configuration=     2
   0.51484005  0.68311646  0.20254336
   0.20254336  0.51484005  0.68311646
   0.68311646  0.20254336  0.51484005
   0.48515995  0.31688354  0.79745664
   0.79745664  0.48515995  0.31688354
   0.31688354  0.79745664  0.48515995
   0.20550351  0.20550351  0.20550351
   0.79449649  0.79449649  0.79449649
  -0.00000000  0.00000000  0.00000000
   0.63476782  0.98277686  0.30353175
   0.30353175  0.63476782  0.98277686
   0.98277686  0.30353175  0.63476782
   0.36523218  0.01722314  0.69646825
   0.69646825  0.36523218  0.01722314
   0.01722314  0.69646825  0.36523218
   0.66632582  0.66632582  0.66632582
   0.33367418  0.33367418  0.33367418
  -0.00000000  0.00000000  0.50000000
   0.50000000  0.00000000  0.00000000
  -0.00000000  0.50000000  0.00000000
unknown system                          
           1
     6.804482    0.071952    0.067689
     0.513908    6.785429    0.067689
     0.513908    0.481535    6.768659
   V    Fe
  17   3
Direct configuration=     3
   0.51062607  0.66477572  0.22486754
   0.22486754  0.51062607  0.66477572
   0.66477572  0.22486754  0.51062607
   0.48937393  0.33522428  0.77513246
   0.77513246  0.48937393  0.33522428
   0.33522428  0.77513246  0.48937393
   0.21014768  0.21014768  0.21014768
   0.78985232  0.78985232  0.78985232
  -0.00000000  0.00000000  0.00000000
   0.63153010  0.98371161  0.30471565
   0.30471565  0.63153010  0.98371161
   0.98371161  0.30471565  0.63153010
   0.36846990  0.01628839  0.69528435
   0.69528435  0.36846990  0.01628839
   0.01628839  0.69528435  0.36846990
   0.65300291  0.65300291  0.65300291
   0.34699709  0.34699709  0.34699709
  -0.00000000  0.00000000  0.50000000
   0.50000000  0.00000000  0.00000000
  -0.00000000  0.50000000  0.00000000
unknown system                          
           1
     6.792113    0.069816    0.065679
     0.510973    6.773224    0.065679
     0.510973    0.478784    6.756600
   V    Fe
  17   3
Direct configuration=     4
   0.51042957  0.66392071  0.22590810
   0.22590810  0.51042957  0.66392071
   0.66392071  0.22590810  0.51042957
   0.48957043  0.33607929  0.77409190
   0.77409190  0.48957043  0.33607929
   0.33607929  0.77409190  0.48957043
   0.21036801  0.21036801  0.21036801
   0.78963199  0.78963199  0.78963199
  -0.00000000  0.00000000  0.00000000
   0.63137887  0.98375487  0.30477053
   0.30477053  0.63137887  0.98375487
   0.98375487  0.30477053  0.63137887
   0.36862113  0.01624513  0.69522947
   0.69522947  0.36862113  0.01624513
   0.01624513  0.69522947  0.36862113
   0.65237083  0.65237083  0.65237083
   0.34762917  0.34762917  0.34762917
  -0.00000000  0.00000000  0.50000000
   0.50000000  0.00000000  0.00000000
  -0.00000000  0.50000000  0.00000000
unknown system                          
           1
     6.557937    0.195203    0.183636
     0.620879    6.531396    0.183636
     0.620879    0.581768    6.508026
   V    Fe
  17   3
Direct configuration=     5
   0.51190312  0.67256649  0.20546438
   0.20546438  0.51190312  0.67256649
   0.67256649  0.20546438  0.51190312
   0.48809688  0.32743351  0.79453562
   0.79453562  0.48809688  0.32743351
   0.32743351  0.79453562  0.48809688
   0.20105370  0.20105370  0.20105370
   0.79894630  0.79894630  0.79894630
  -0.00000000  0.00000000  0.00000000
   0.63416909  0.98370848  0.30221508
   0.30221508  0.63416909  0.98370848
   0.98370848  0.30221508  0.63416909
   0.36583091  0.01629152  0.69778492
   0.69778492  0.36583091  0.01629152
   0.01629152  0.69778492  0.36583091
   0.65398770  0.65398770  0.65398770
   0.34601230  0.34601230  0.34601230
  -0.00000000  0.00000000  0.50000000
   0.50000000  0.00000000  0.00000000
  -0.00000000  0.50000000  0.00000000
unknown system                          
           1
     6.439415    0.258664    0.243336
     0.676505    6.409002    0.243336
     0.676505    0.633890    6.382217
   V    Fe
  17   3
Direct configuration=     6
   0.51278988  0.67729367  0.19461541
   0.19461541  0.51278988  0.67729367
   0.67729367  0.19461541  0.51278988
   0.48721012  0.32270633  0.80538459
   0.80538459  0.48721012  0.32270633
   0.32270633  0.80538459  0.48721012
   0.19633082  0.19633082  0.19633082
   0.80366918  0.80366918  0.80366918
  -0.00000000  0.00000000  0.00000000
   0.63566134  0.98368186  0.30084497
   0.30084497  0.63566134  0.98368186
   0.98368186  0.30084497  0.63566134
   0.36433866  0.01631814  0.69915503
   0.69915503  0.36433866  0.01631814
   0.01631814  0.69915503  0.36433866
   0.65480754  0.65480754  0.65480754
   0.34519246  0.34519246  0.34519246
  -0.00000000  0.00000000  0.50000000
   0.50000000  0.00000000  0.00000000
  -0.00000000  0.50000000  0.00000000
unknown system                          
           1
     6.538881    0.470065    0.442211
     0.893923    6.494522    0.442211
     0.893923    0.837611    6.455445
   V    Fe
  17   3
Direct configuration=     7
   0.51469680  0.68298711  0.17280143
   0.17280143  0.51469680  0.68298711
   0.68298711  0.17280143  0.51469680
   0.48530320  0.31701289  0.82719857
   0.82719857  0.48530320  0.31701289
   0.31701289  0.82719857  0.48530320
   0.18317738  0.18317738  0.18317738
   0.81682262  0.81682262  0.81682262
   0.00000000  0.00000000  0.00000000
   0.64313314  0.98303639  0.29583492
   0.29583492  0.64313314  0.98303639
   0.98303639  0.29583492  0.64313314
   0.35686686  0.01696361  0.70416508
   0.70416508  0.35686686  0.01696361
   0.01696361  0.70416508  0.35686686
   0.65261260  0.65261260  0.65261260
   0.34738740  0.34738740  0.34738740
   0.00000000  0.00000000  0.50000000
   0.50000000  0.00000000  0.00000000
   0.00000000  0.50000000  0.00000000
unknown system                          
           1
     6.564964    0.525501    0.494362
     0.950936    6.516948    0.494361
     0.950936    0.891033    6.474648
   V    Fe
  17   3
Direct configuration=     8
   0.51531297  0.68461698  0.16706732
   0.16706732  0.51531297  0.68461698
   0.68461698  0.16706732  0.51531297
   0.48468703  0.31538302  0.83293268
   0.83293268  0.48468703  0.31538302
   0.31538302  0.83293268  0.48468703
   0.17994949  0.17994949  0.17994949
   0.82005051  0.82005051  0.82005051
   0.00000000  0.00000000  0.00000000
   0.64511989  0.98285008  0.29448019
   0.29448019  0.64511989  0.98285008
   0.98285008  0.29448019  0.64511989
   0.35488011  0.01714992  0.70551981
   0.70551981  0.35488011  0.01714992
   0.01714992  0.70551981  0.35488011
   0.65207395  0.65207395  0.65207395
   0.34792605  0.34792605  0.34792605
   0.00000000  0.00000000  0.50000000
   0.50000000  0.00000000  0.00000000
   0.00000000  0.50000000  0.00000000
unknown system                          
           1
     6.647505    0.577303    0.543094
     1.007992    6.595949    0.543094
     1.007992    0.944495    6.550529
   V    Fe
  17   3
Direct configuration=     9
   0.51899023  0.67590732  0.17083254
   0.17083254  0.51899023  0.67590732
   0.67590732  0.17083254  0.51899023
   0.48100977  0.32409268  0.82916746
   0.82916746  0.48100977  0.32409268
   0.32409268  0.82916746  0.48100977
   0.17750392  0.17750392  0.17750392
   0.82249608  0.82249608  0.82249608
   0.00000000  0.00000000  0.00000000
   0.64740461  0.97587988  0.29208719
   0.29208719  0.64740461  0.97587988
   0.97587988  0.29208719  0.64740461
   0.35259539  0.02412012  0.70791281
   0.70791281  0.35259539  0.02412012
   0.02412012  0.70791281  0.35259539
   0.65252503  0.65252503  0.65252503
   0.34747497  0.34747497  0.34747497
   0.00000000  0.00000000  0.50000000
   0.50000000  0.00000000  0.00000000
   0.00000000  0.50000000  0.00000000
unknown system                          
           1
     6.674053    0.593965    0.558768
     1.026343    6.621359    0.558768
     1.026343    0.961690    6.574935
   V    Fe
  17   3
Direct configuration=    10
   0.52017010  0.67312111  0.17204057
   0.17204057  0.52017010  0.67312111
   0.67312111  0.17204057  0.52017010
   0.47982990  0.32687889  0.82795943
   0.82795943  0.47982990  0.32687889
   0.32687889  0.82795943  0.47982990
   0.17673519  0.17673519  0.17673519
   0.82326481  0.82326481  0.82326481
   0.00000000  0.00000000  0.00000000
   0.64814993  0.97366194  0.29133480
   0.29133480  0.64814993  0.97366194
   0.97366194  0.29133480  0.64814993
   0.35185007  0.02633806  0.70866520
   0.70866520  0.35185007  0.02633806
   0.02633806  0.70866520  0.35185007
   0.65266682  0.65266682  0.65266682
   0.34733318  0.34733318  0.34733318
   0.00000000  0.00000000  0.50000000
   0.50000000  0.00000000  0.00000000
   0.00000000  0.50000000  0.00000000
unknown system                          
           1
     6.636157    0.611145    0.574931
     1.041025    6.582427    0.574931
     1.041025    0.975447    6.535089
   V    Fe
  17   3
Direct configuration=    11
   0.52261096  0.66662163  0.17386169
   0.17386169  0.52261096  0.66662163
   0.66662163  0.17386169  0.52261096
   0.47738904  0.33337837  0.82613831
   0.82613831  0.47738904  0.33337837
   0.33337837  0.82613831  0.47738904
   0.17529300  0.17529300  0.17529300
   0.82470700  0.82470700  0.82470700
   0.00000000  0.00000000  0.00000000
   0.64990954  0.96866545  0.29003060
   0.29003060  0.64990954  0.96866545
   0.96866545  0.29003060  0.64990954
   0.35009046  0.03133455  0.70996940
   0.70996940  0.35009046  0.03133455
   0.03133455  0.70996940  0.35009046
   0.65389327  0.65389327  0.65389327
   0.34610673  0.34610673  0.34610673
   0.00000000  0.00000000  0.50000000
   0.50000000  0.00000000  0.00000000
   0.00000000  0.50000000  0.00000000
unknown system                          
           1
     6.569094    0.641550    0.603534
     1.067008    6.513529    0.603534
     1.067008    0.999794    6.464575
   V    Fe
  17   3
Direct configuration=    12
   0.52698221  0.65502261  0.17712590
   0.17712590  0.52698221  0.65502261
   0.65502261  0.17712590  0.52698221
   0.47301779  0.34497739  0.82287410
   0.82287410  0.47301779  0.34497739
   0.34497739  0.82287410  0.47301779
   0.17273828  0.17273828  0.17273828
   0.82726172  0.82726172  0.82726172
   0.00000000 -0.00000000  0.00000000
   0.65307530  0.95976269  0.28772345
   0.28772345  0.65307530  0.95976269
   0.95976269  0.28772345  0.65307530
   0.34692470  0.04023731  0.71227655
   0.71227655  0.34692470  0.04023731
   0.04023731  0.71227655  0.34692470
   0.65606582  0.65606582  0.65606582
   0.34393418  0.34393418  0.34393418
   0.00000000 -0.00000000  0.50000000
   0.50000000 -0.00000000  0.00000000
   0.00000000  0.50000000  0.00000000
unknown system                          
           1
     6.573475    0.661984    0.622757
     1.087683    6.516574    0.622757
     1.087683    1.019166    6.466441
   V    Fe
  17   3
Direct configuration=    13
   0.52747649  0.64915829  0.17623549
   0.17623549  0.52747649  0.64915829
   0.64915829  0.17623549  0.52747649
   0.47252351  0.35084171  0.82376451
   0.82376451  0.47252351  0.35084171
   0.35084171  0.82376451  0.47252351
   0.17158110  0.17158110  0.17158110
   0.82841890  0.82841890  0.82841890
   0.00000000 -0.00000000  0.00000000
   0.65579831  0.95670849  0.28733692
   0.28733692  0.65579831  0.95670849
   0.95670849  0.28733692  0.65579831
   0.34420169  0.04329151  0.71266308
   0.71266308  0.34420169  0.04329151
   0.04329151  0.71266308  0.34420169
   0.65983547  0.65983547  0.65983547
   0.34016453  0.34016453  0.34016453
   0.00000000 -0.00000000  0.50000000
   0.50000000 -0.00000000  0.00000000
   0.00000000  0.50000000  0.00000000
unknown system                          
           1
     6.586621    0.723284    0.680425
     1.149709    6.525709    0.680425
     1.149709    1.077285    6.472041
   V    Fe
  17   3
Direct configuration=    14
   0.52901502  0.63156441  0.17360766
   0.17360766  0.52901502  0.63156441
   0.63156441  0.17360766  0.52901502
   0.47098498  0.36843559  0.82639234
   0.82639234  0.47098498  0.36843559
   0.36843559  0.82639234  0.47098498
   0.16812772  0.16812772  0.16812772
   0.83187228  0.83187228  0.83187228
   0.00000000 -0.00000000  0.00000000
   0.66399748  0.94752458  0.28617980
   0.28617980  0.66399748  0.94752458
   0.94752458  0.28617980  0.66399748
   0.33600252  0.05247542  0.71382020
   0.71382020  0.33600252  0.05247542
   0.05247542  0.71382020  0.33600252
   0.67108529  0.67108529  0.67108529
   0.32891471  0.32891471  0.32891471
   0.00000000 -0.00000000  0.50000000
   0.50000000 -0.00000000  0.00000000
   0.00000000  0.50000000  0.00000000
unknown system                          
           1
     6.592573    0.751040    0.706536
     1.177793    6.529845    0.706536
     1.177793    1.103599    6.474576
   V    Fe
  17   3
Direct configuration=    15
   0.52978679  0.62359553  0.17247602
   0.17247602  0.52978679  0.62359553
   0.62359553  0.17247602  0.52978679
   0.47021321  0.37640447  0.82752398
   0.82752398  0.47021321  0.37640447
   0.37640447  0.82752398  0.47021321
   0.16658824  0.16658824  0.16658824
   0.83341176  0.83341176  0.83341176
   0.00000000 -0.00000000  0.00000000
   0.66775117  0.94333681  0.28565906
   0.28565906  0.66775117  0.94333681
   0.94333681  0.28565906  0.66775117
   0.33224883  0.05666319  0.71434094
   0.71434094  0.33224883  0.05666319
   0.05666319  0.71434094  0.33224883
   0.67610034  0.67610034  0.67610034
   0.32389966  0.32389966  0.32389966
   0.00000000 -0.00000000  0.50000000
   0.50000000 -0.00000000  0.00000000
   0.00000000  0.50000000  0.00000000
unknown system                          
           1
     6.586968    0.766514    0.721093
     1.192869    6.523247    0.721093
     1.192869    1.117726    6.467102
   V    Fe
  17   3
Direct configuration=    16
   0.52916256  0.61907229  0.17478574
   0.17478574  0.52916256  0.61907229
   0.61907229  0.17478574  0.52916256
   0.47083744  0.38092771  0.82521426
   0.82521426  0.47083744  0.38092771
   0.38092771  0.82521426  0.47083744
   0.16315707  0.16315707  0.16315707
   0.83684293  0.83684293  0.83684293
   0.00000000 -0.00000000  0.00000000
   0.67208793  0.93783436  0.28340388
   0.28340388  0.67208793  0.93783436
   0.93783436  0.28340388  0.67208793
   0.32791207  0.06216564  0.71659612
   0.71659612  0.32791207  0.06216564
   0.06216564  0.71659612  0.32791207
   0.68436464  0.68436464  0.68436464
   0.31563536  0.31563536  0.31563536
   0.00000000 -0.00000000  0.50000000
   0.50000000 -0.00000000  0.00000000
   0.00000000  0.50000000  0.00000000
unknown system                          
           1
     6.580311    0.784891    0.738381
     1.210775    6.515410    0.738381
     1.210775    1.134504    6.458225
   V    Fe
  17   3
Direct configuration=    17
   0.52842573  0.61368704  0.17754679
   0.17754679  0.52842573  0.61368704
   0.61368704  0.17754679  0.52842573
   0.47157427  0.38631296  0.82245321
   0.82245321  0.47157427  0.38631296
   0.38631296  0.82245321  0.47157427
   0.15909317  0.15909318  0.15909318
   0.84090683  0.84090682  0.84090682
   0.00000000 -0.00000000  0.00000000
   0.67726715  0.93128318  0.28072414
   0.28072414  0.67726715  0.93128318
   0.93128318  0.28072414  0.67726715
   0.32273285  0.06871682  0.71927586
   0.71927586  0.32273285  0.06871682
   0.06871682  0.71927586  0.32273285
   0.69415292  0.69415292  0.69415292
   0.30584708  0.30584708  0.30584708
   0.00000000 -0.00000000  0.50000000
   0.50000000 -0.00000000  0.00000000
   0.00000000  0.50000000  0.00000000
unknown system                          
           1
     6.569396    0.746390    0.702161
     1.171646    6.507020    0.702161
     1.171646    1.097840    6.452060
   V    Fe
  17   3
Direct configuration=    18
   0.52603587  0.61566460  0.18129802
   0.18129802  0.52603587  0.61566460
   0.61566460  0.18129802  0.52603587
   0.47396413  0.38433540  0.81870198
   0.81870198  0.47396413  0.38433540
   0.38433540  0.81870198  0.47396413
   0.15604149  0.15604150  0.15604150
   0.84395851  0.84395850  0.84395850
   0.00000000 -0.00000000  0.00000000
   0.67739693  0.92806863  0.27996578
   0.27996578  0.67739693  0.92806863
   0.92806863  0.27996578  0.67739693
   0.32260307  0.07193137  0.72003422
   0.72003422  0.32260307  0.07193137
   0.07193137  0.72003422  0.32260307
   0.69459745  0.69459745  0.69459745
   0.30540255  0.30540255  0.30540255
   0.00000000 -0.00000000  0.50000000
   0.50000000 -0.00000000  0.00000000
   0.00000000  0.50000000  0.00000000
unknown system                          
           1
     6.562743    0.722921    0.680083
     1.147794    6.501905    0.680083
     1.147794    1.075491    6.448302
   V    Fe
  17   3
Direct configuration=    19
   0.52459703  0.61687411  0.18358305
   0.18358305  0.52459703  0.61687411
   0.61687411  0.18358305  0.52459703
   0.47540297  0.38312589  0.81641695
   0.81641695  0.47540297  0.38312589
   0.38312589  0.81641695  0.47540297
   0.15416266  0.15416266  0.15416266
   0.84583734  0.84583734  0.84583734
   0.00000000 -0.00000000  0.00000000
   0.67746373  0.92610747  0.27949402
   0.27949402  0.67746373  0.92610747
   0.92610747  0.27949402  0.67746373
   0.32253627  0.07389253  0.72050598
   0.72050598  0.32253627  0.07389253
   0.07389253  0.72050598  0.32253627
   0.69487114  0.69487114  0.69487114
   0.30512886  0.30512886  0.30512886
   0.00000000 -0.00000000  0.50000000
   0.50000000 -0.00000000  0.00000000
   0.00000000  0.50000000  0.00000000
unknown system                          
           1
     6.577893    0.733040    0.689603
     1.158877    6.516365    0.689603
     1.158877    1.085875    6.462155
   V    Fe
  17   3
Direct configuration=    20
   0.52233201  0.61783681  0.18438952
   0.18438952  0.52233201  0.61783681
   0.61783681  0.18438952  0.52233201
   0.47766799  0.38216319  0.81561048
   0.81561048  0.47766799  0.38216319
   0.38216319  0.81561048  0.47766799
   0.15377849  0.15377849  0.15377849
   0.84622151  0.84622151  0.84622151
   0.00000000 -0.00000000  0.00000000
   0.67785402  0.92495197  0.28049612
   0.28049612  0.67785403  0.92495197
   0.92495197  0.28049612  0.67785403
   0.32214598  0.07504803  0.71950388
   0.71950388  0.32214597  0.07504803
   0.07504803  0.71950388  0.32214597
   0.69527425  0.69527424  0.69527424
   0.30472575  0.30472576  0.30472576
   0.00000000 -0.00000000  0.50000000
   0.50000000 -0.00000000  0.00000000
   0.00000000  0.50000000  0.00000000
unknown system                          
           1
     6.585986    0.738447    0.694689
     1.164798    6.524090    0.694689
     1.164798    1.091423    6.469555
   V    Fe
  17   3
Direct configuration=    21
   0.52112320  0.61835103  0.18482034
   0.18482033  0.52112320  0.61835103
   0.61835103  0.18482034  0.52112320
   0.47887680  0.38164897  0.81517966
   0.81517967  0.47887680  0.38164897
   0.38164897  0.81517966  0.47887680
   0.15357411  0.15357411  0.15357411
   0.84642589  0.84642589  0.84642589
   0.00000000 -0.00000000  0.00000000
   0.67806223  0.92433499  0.28103091
   0.28103091  0.67806223  0.92433499
   0.92433499  0.28103091  0.67806223
   0.32193777  0.07566501  0.71896909
   0.71896909  0.32193777  0.07566501
   0.07566501  0.71896909  0.32193777
   0.69548869  0.69548869  0.69548869
   0.30451131  0.30451131  0.30451131
   0.00000000 -0.00000000  0.50000000
   0.50000000 -0.00000000  0.00000000
   0.00000000  0.50000000  0.00000000
unknown system                          
           1
     6.580180    0.741762    0.697808
     1.167729    6.518082    0.697808
     1.167729    1.094170    6.463367
   V    Fe
  17   3
Direct configuration=    22
   0.51975888  0.61895778  0.18517808
   0.18517808  0.51975888  0.61895778
   0.61895778  0.18517808  0.51975888
   0.48024112  0.38104222  0.81482192
   0.81482192  0.48024112  0.38104222
   0.38104222  0.81482192  0.48024112
   0.15348314  0.15348314  0.15348314
   0.84651686  0.84651686  0.84651686
   0.00000000 -0.00000000  0.00000000
   0.67817527  0.92371482  0.28167390
   0.28167390  0.67817527  0.92371482
   0.92371482  0.28167390  0.67817527
   0.32182473  0.07628518  0.71832610
   0.71832610  0.32182473  0.07628518
   0.07628518  0.71832610  0.32182473
   0.69579793  0.69579793  0.69579793
   0.30420207  0.30420207  0.30420207
   0.00000000 -0.00000000  0.50000000
   0.50000000 -0.00000000  0.00000000
   0.00000000  0.50000000  0.00000000
unknown system                          
           1
     6.571210    0.746886    0.702628
     1.172259    6.508797    0.702628
     1.172259    1.098414    6.453806
   V    Fe
  17   3
Direct configuration=    23
   0.51764760  0.61989719  0.18573211
   0.18573211  0.51764760  0.61989719
   0.61989719  0.18573211  0.51764760
   0.48235240  0.38010281  0.81426789
   0.81426789  0.48235240  0.38010281
   0.38010281  0.81426789  0.48235240
   0.15334256  0.15334257  0.15334257
   0.84665744  0.84665743  0.84665743
   0.00000000 -0.00000000  0.00000000
   0.67835010  0.92275484  0.28266896
   0.28266896  0.67835010  0.92275484
   0.92275484  0.28266896  0.67835010
   0.32164990  0.07724516  0.71733104
   0.71733104  0.32164990  0.07724516
   0.07724516  0.71733104  0.32164990
   0.69627576  0.69627576  0.69627576
   0.30372424  0.30372424  0.30372424
   0.00000000 -0.00000000  0.50000000
   0.50000000 -0.00000000  0.00000000
   0.00000000  0.50000000  0.00000000
unknown system                          
           1
     6.569731    0.747730    0.703422
     1.173006    6.507266    0.703422
     1.173006    1.099114    6.452230
   V    Fe
  17   3
Direct configuration=    24
   0.51729879  0.62005252  0.18582375
   0.18582375  0.51729879  0.62005252
   0.62005252  0.18582375  0.51729879
   0.48270121  0.37994748  0.81417625
   0.81417625  0.48270121  0.37994748
   0.37994748  0.81417625  0.48270121
   0.15331939  0.15331939  0.15331939
   0.84668061  0.84668061  0.84668061
   0.00000000 -0.00000000  0.00000000
   0.67837897  0.92259617  0.28283337
   0.28283337  0.67837897  0.92259617
   0.92259617  0.28283337  0.67837897
   0.32162103  0.07740383  0.71716663
   0.71716663  0.32162103  0.07740383
   0.07740383  0.71716663  0.32162103
   0.69635453  0.69635453  0.69635453
   0.30364547  0.30364547  0.30364547
   0.00000000 -0.00000000  0.50000000
   0.50000000 -0.00000000  0.00000000
   0.00000000  0.50000000  0.00000000
unknown system                          
           1
     6.570051    0.746844    0.702589
     1.172142    6.507643    0.702588
     1.172142    1.098305    6.452657
   V    Fe
  17   3
Direct configuration=    25
   0.51710124  0.62026265  0.18577853
   0.18577853  0.51710124  0.62026265
   0.62026265  0.18577853  0.51710124
   0.48289876  0.37973735  0.81422147
   0.81422147  0.48289876  0.37973735
   0.37973735  0.81422147  0.48289876
   0.15338763  0.15338763  0.15338763
   0.84661237  0.84661237  0.84661237
   0.00000000 -0.00000000  0.00000000
   0.67818816  0.92263076  0.28293772
   0.28293772  0.67818816  0.92263076
   0.92263076  0.28293772  0.67818816
   0.32181184  0.07736924  0.71706228
   0.71706228  0.32181184  0.07736924
   0.07736924  0.71706228  0.32181184
   0.69652140  0.69652140  0.69652140
   0.30347860  0.30347860  0.30347860
   0.00000000 -0.00000000  0.50000000
   0.50000000 -0.00000000  0.00000000
   0.00000000  0.50000000  0.00000000
unknown system                          
           1
     6.570941    0.744380    0.700270
     1.169741    6.508691    0.700270
     1.169741    1.096055    6.453844
   V    Fe
  17   3
Direct configuration=    26
   0.51655212  0.62084673  0.18565282
   0.18565282  0.51655212  0.62084673
   0.62084673  0.18565282  0.51655212
   0.48344788  0.37915327  0.81434718
   0.81434718  0.48344788  0.37915327
   0.37915327  0.81434718  0.48344788
   0.15357738  0.15357738  0.15357738
   0.84642262  0.84642262  0.84642262
   0.00000000 -0.00000000  0.00000000
   0.67765777  0.92272690  0.28322775
   0.28322775  0.67765777  0.92272690
   0.92272690  0.28322775  0.67765777
   0.32234223  0.07727310  0.71677225
   0.71677225  0.32234223  0.07727310
   0.07727310  0.71677225  0.32234223
   0.69698544  0.69698544  0.69698544
   0.30301456  0.30301456  0.30301456
   0.00000000 -0.00000000  0.50000000
   0.50000000 -0.00000000  0.00000000
   0.00000000  0.50000000  0.00000000
unknown system                          
           1
     6.570850    0.744762    0.700630
     1.170116    6.508576    0.700629
     1.170116    1.096406    6.453707
   V    Fe
  17   3
Direct configuration=    27
   0.51643722  0.62104093  0.18561888
   0.18561888  0.51643722  0.62104093
   0.62104093  0.18561888  0.51643722
   0.48356278  0.37895907  0.81438112
   0.81438112  0.48356278  0.37895907
   0.37895907  0.81438112  0.48356278
   0.15350325  0.15350325  0.15350325
   0.84649675  0.84649675  0.84649675
   0.00000000 -0.00000000  0.00000000
   0.67743959  0.92295024  0.28324132
   0.28324132  0.67743959  0.92295024
   0.92295024  0.28324132  0.67743959
   0.32256041  0.07704976  0.71675868
   0.71675868  0.32256041  0.07704976
   0.07704976  0.71675868  0.32256041
   0.69697933  0.69697933  0.69697933
   0.30302067  0.30302067  0.30302067
   0.00000000 -0.00000000  0.50000000
   0.50000000 -0.00000000  0.00000000
   0.00000000  0.50000000  0.00000000
unknown system                          
           1
     6.570577    0.745908    0.701708
     1.171242    6.508229    0.701708
     1.171242    1.097461    6.453295
   V    Fe
  17   3
Direct configuration=    28
   0.51609247  0.62162358  0.18551703
   0.18551703  0.51609247  0.62162358
   0.62162358  0.18551703  0.51609247
   0.48390753  0.37837642  0.81448297
   0.81448297  0.48390753  0.37837642
   0.37837642  0.81448297  0.48390753
   0.15328088  0.15328088  0.15328088
   0.84671912  0.84671912  0.84671912
   0.00000000 -0.00000000  0.00000000
   0.67678498  0.92362034  0.28328201
   0.28328201  0.67678498  0.92362034
   0.92362034  0.28328201  0.67678498
   0.32321502  0.07637966  0.71671799
   0.71671799  0.32321502  0.07637966
   0.07637966  0.71671799  0.32321502
   0.69696103  0.69696103  0.69696103
   0.30303897  0.30303897  0.30303897
   0.00000000 -0.00000000  0.50000000
   0.50000000 -0.00000000  0.00000000
   0.00000000  0.50000000  0.00000000
unknown system                          
           1
     6.570031    0.748199    0.703864
     1.173493    6.507536    0.703864
     1.173493    1.099571    6.452472
   V    Fe
  17   3
Direct configuration=    29
   0.51540274  0.62278914  0.18531324
   0.18531324  0.51540274  0.62278914
   0.62278914  0.18531324  0.51540274
   0.48459726  0.37721086  0.81468676
   0.81468676  0.48459726  0.37721086
   0.37721086  0.81468676  0.48459726
   0.15283625  0.15283625  0.15283625
   0.84716375  0.84716375  0.84716375
   0.00000000 -0.00000000  0.00000000
   0.67547540  0.92496087  0.28336341
   0.28336341  0.67547540  0.92496087
   0.92496087  0.28336341  0.67547540
   0.32452460  0.07503913  0.71663659
   0.71663659  0.32452460  0.07503913
   0.07503913  0.71663659  0.32452460
   0.69692442  0.69692442  0.69692442
   0.30307558  0.30307558  0.30307558
   0.00000000 -0.00000000  0.50000000
   0.50000000 -0.00000000  0.00000000
   0.00000000  0.50000000  0.00000000
unknown system                          
           1
     6.568940    0.752783    0.708176
     1.177996    6.506149    0.708176
     1.177996    1.103790    6.450824
   V    Fe
  17   3
Direct configuration=    30
   0.51402240  0.62512129  0.18490527
   0.18490527  0.51402240  0.62512129
   0.62512129  0.18490527  0.51402240
   0.48597760  0.37487871  0.81509473
   0.81509473  0.48597760  0.37487871
   0.37487871  0.81509473  0.48597760
   0.15194738  0.15194738  0.15194738
   0.84805262  0.84805262  0.84805262
   0.00000000 -0.00000000  0.00000000
   0.67285481  0.92764323  0.28352621
   0.28352621  0.67285481  0.92764323
   0.92764323  0.28352621  0.67285481
   0.32714519  0.07235677  0.71647379
   0.71647379  0.32714519  0.07235677
   0.07235677  0.71647379  0.32714519
   0.69685125  0.69685125  0.69685125
   0.30314875  0.30314875  0.30314875
   0.00000000 -0.00000000  0.50000000
   0.50000000 -0.00000000  0.00000000
   0.00000000  0.50000000  0.00000000
unknown system                          
           1
     6.569472    0.750550    0.706075
     1.175803    6.506825    0.706075
     1.175803    1.101735    6.451627
   V    Fe
  17   3
Direct configuration=    31
   0.51469575  0.62398409  0.18510440
   0.18510440  0.51469575  0.62398409
   0.62398409  0.18510440  0.51469575
   0.48530425  0.37601591  0.81489560
   0.81489560  0.48530425  0.37601591
   0.37601591  0.81489560  0.48530425
   0.15238004  0.15238004  0.15238004
   0.84761996  0.84761996  0.84761996
   0.00000000 -0.00000000  0.00000000
   0.67413292  0.92633514  0.28344688
   0.28344688  0.67413292  0.92633514
   0.92633514  0.28344688  0.67413292
   0.32586708  0.07366486  0.71655312