  20  20   0   0
  0.1295360E+02  0.5861746E-09  0.5861746E-09  0.7539918E-09  0.5000000E-15
  1.000000000000000E-004
  CAR 
 unknown system                          
      8.50947287     -1.69382788  301      6.31969317      1.00000000
     -1.694  0.0000E+00  0.0000E+00
     -1.660  0.0000E+00  0.0000E+00
     -1.626  0.0000E+00  0.0000E+00
     -1.592  0.0000E+00  0.0000E+00
     -1.558  0.0000E+00  0.0000E+00
     -1.524  0.0000E+00  0.0000E+00
     -1.490  0.0000E+00  0.0000E+00
     -1.456  0.0000E+00  0.0000E+00
     -1.422  0.0000E+00  0.0000E+00
     -1.388  0.0000E+00  0.0000E+00
     -1.354  0.0000E+00  0.0000E+00
     -1.320  0.0000E+00  0.0000E+00
     -1.286  0.8161E-18  0.2776E-19
     -1.252  0.2122E-16  0.7494E-18
     -1.218  0.9181E-15  0.3197E-16
     -1.184  0.3059E-13  0.1072E-14
     -1.150  0.8108E-12  0.2865E-13
     -1.116  0.1710E-10  0.6103E-12
     -1.082  0.2871E-09  0.1037E-10
     -1.048  0.3836E-08  0.1408E-09
     -1.014  0.4081E-07  0.1529E-08
     -0.980  0.3456E-06  0.1328E-07
     -0.946  0.2331E-05  0.9257E-07
     -0.912  0.1252E-04  0.5185E-06
     -0.878  0.5360E-04  0.2341E-05
     -0.844  0.1827E-03  0.8556E-05
     -0.810  0.4963E-03  0.2544E-04
     -0.776  0.1074E-02  0.6198E-04
     -0.742  0.1853E-02  0.1250E-03
     -0.708  0.2547E-02  0.2116E-03
     -0.673  0.2791E-02  0.3066E-03
     -0.639  0.2438E-02  0.3895E-03
     -0.605  0.1701E-02  0.4473E-03
     -0.571  0.9663E-03  0.4802E-03
     -0.537  0.5148E-03  0.4977E-03
     -0.503  0.4497E-03  0.5130E-03
     -0.469  0.7801E-03  0.5395E-03
     -0.435  0.1444E-02  0.5887E-03
     -0.401  0.2222E-02  0.6642E-03
     -0.367  0.2738E-02  0.7573E-03
     -0.333  0.2691E-02  0.8489E-03
     -0.299  0.2107E-02  0.9205E-03
     -0.265  0.1315E-02  0.9653E-03
     -0.231  0.6544E-03  0.9875E-03
     -0.197  0.2594E-03  0.9963E-03
     -0.163  0.8193E-04  0.9991E-03
     -0.129  0.2062E-04  0.9998E-03
     -0.095  0.4133E-05  0.1000E-02
     -0.061  0.6599E-06  0.1000E-02
     -0.027  0.8393E-07  0.1000E-02
      0.007  0.8878E-08  0.1000E-02
      0.041  0.5680E-08  0.1000E-02
      0.075  0.5190E-07  0.1000E-02
      0.109  0.4287E-06  0.1000E-02
      0.143  0.2822E-05  0.1000E-02
      0.177  0.1480E-04  0.1001E-02
      0.211  0.6186E-04  0.1003E-02
      0.245  0.2062E-03  0.1010E-02
      0.279  0.5493E-03  0.1028E-02
      0.313  0.1175E-02  0.1068E-02
      0.347  0.2040E-02  0.1138E-02
      0.381  0.2950E-02  0.1238E-02
      0.415  0.3739E-02  0.1365E-02
      0.449  0.4466E-02  0.1517E-02
      0.483  0.5275E-02  0.1697E-02
      0.517  0.6037E-02  0.1902E-02
      0.551  0.6385E-02  0.2119E-02
      0.585  0.6313E-02  0.2334E-02
      0.619  0.6502E-02  0.2555E-02
      0.653  0.7698E-02  0.2817E-02
      0.687  0.9682E-02  0.3146E-02
      0.721  0.1114E-01  0.3525E-02
      0.755  0.1079E-01  0.3892E-02
      0.789  0.8646E-02  0.4186E-02
      0.823  0.5999E-02  0.4390E-02
      0.857  0.4323E-02  0.4537E-02
      0.891  0.4174E-02  0.4679E-02
      0.925  0.4983E-02  0.4849E-02
      0.959  0.5628E-02  0.5040E-02
      0.993  0.5294E-02  0.5220E-02
      1.027  0.4010E-02  0.5356E-02
      1.061  0.2425E-02  0.5439E-02
      1.095  0.1170E-02  0.5479E-02
      1.129  0.4496E-03  0.5494E-02
      1.163  0.1377E-03  0.5499E-02
      1.197  0.3366E-04  0.5500E-02
      1.231  0.7152E-05  0.5500E-02
      1.265  0.5568E-05  0.5500E-02
      1.299  0.2694E-04  0.5501E-02
      1.333  0.1272E-03  0.5505E-02
      1.367  0.4879E-03  0.5522E-02
      1.401  0.1518E-02  0.5574E-02
      1.435  0.3844E-02  0.5704E-02
      1.469  0.7946E-02  0.5975E-02
      1.503  0.1344E-01  0.6432E-02
      1.537  0.1866E-01  0.7066E-02
      1.571  0.2133E-01  0.7792E-02
      1.605  0.2029E-01  0.8482E-02
      1.639  0.1660E-01  0.9046E-02
      1.673  0.1272E-01  0.9479E-02
      1.707  0.1058E-01  0.9839E-02
      1.741  0.1028E-01  0.1019E-01
      1.775  0.1053E-01  0.1055E-01
      1.809  0.9975E-02  0.1089E-01
      1.843  0.8221E-02  0.1117E-01
      1.877  0.5967E-02  0.1137E-01
      1.911  0.4210E-02  0.1151E-01
      1.945  0.3390E-02  0.1163E-01
      1.979  0.3192E-02  0.1174E-01
      2.013  0.3069E-02  0.1184E-01
      2.047  0.2886E-02  0.1194E-01
      2.081  0.3072E-02  0.1204E-01
      2.115  0.4175E-02  0.1218E-01
      2.149  0.6265E-02  0.1240E-01
      2.183  0.8769E-02  0.1270E-01
      2.217  0.1097E-01  0.1307E-01
      2.251  0.1266E-01  0.1350E-01
      2.285  0.1415E-01  0.1398E-01
      2.319  0.1567E-01  0.1451E-01
      2.353  0.1711E-01  0.1510E-01
      2.387  0.1849E-01  0.1572E-01
      2.422  0.2009E-01  0.1641E-01
      2.456  0.2186E-01  0.1715E-01
      2.490  0.2297E-01  0.1793E-01
      2.524  0.2256E-01  0.1870E-01
      2.558  0.2079E-01  0.1941E-01
      2.592  0.1921E-01  0.2006E-01
      2.626  0.1951E-01  0.2072E-01
      2.660  0.2214E-01  0.2148E-01
      2.694  0.2574E-01  0.2235E-01
      2.728  0.2823E-01  0.2331E-01
      2.762  0.2849E-01  0.2428E-01
      2.796  0.2700E-01  0.2520E-01
      2.830  0.2499E-01  0.2605E-01
      2.864  0.2334E-01  0.2684E-01
      2.898  0.2263E-01  0.2761E-01
      2.932  0.2352E-01  0.2841E-01
      2.966  0.2633E-01  0.2931E-01
      3.000  0.3047E-01  0.3035E-01
      3.034  0.3492E-01  0.3153E-01
      3.068  0.3913E-01  0.3286E-01
      3.102  0.4313E-01  0.3433E-01
      3.136  0.4694E-01  0.3593E-01
      3.170  0.5047E-01  0.3764E-01
      3.204  0.5407E-01  0.3948E-01
      3.238  0.5863E-01  0.4148E-01
      3.272  0.6463E-01  0.4367E-01
      3.306  0.7107E-01  0.4609E-01
      3.340  0.7593E-01  0.4867E-01
      3.374  0.7758E-01  0.5131E-01
      3.408  0.7552E-01  0.5388E-01
      3.442  0.7007E-01  0.5626E-01
      3.476  0.6226E-01  0.5838E-01
      3.510  0.5396E-01  0.6022E-01
      3.544  0.4756E-01  0.6183E-01
      3.578  0.4483E-01  0.6336E-01
      3.612  0.4605E-01  0.6493E-01
      3.646  0.5023E-01  0.6663E-01
      3.680  0.5600E-01  0.6854E-01
      3.714  0.6208E-01  0.7065E-01
      3.748  0.6724E-01  0.7294E-01
      3.782  0.6991E-01  0.7531E-01
      3.816  0.6842E-01  0.7764E-01
      3.850  0.6177E-01  0.7974E-01
      3.884  0.5075E-01  0.8147E-01
      3.918  0.3834E-01  0.8277E-01
      3.952  0.2868E-01  0.8375E-01
      3.986  0.2489E-01  0.8459E-01
      4.020  0.2736E-01  0.8552E-01
      4.054  0.3392E-01  0.8668E-01
      4.088  0.4150E-01  0.8809E-01
      4.122  0.4776E-01  0.8971E-01
      4.156  0.5156E-01  0.9147E-01
      4.190  0.5280E-01  0.9326E-01
      4.224  0.5242E-01  0.9505E-01
      4.258  0.5244E-01  0.9683E-01
      4.292  0.5507E-01  0.9870E-01
      4.326  0.6095E-01  0.1008E+00
      4.360  0.6799E-01  0.1031E+00
      4.394  0.7244E-01  0.1056E+00
      4.428  0.7168E-01  0.1080E+00
      4.462  0.6621E-01  0.1102E+00
      4.496  0.5911E-01  0.1123E+00
      4.530  0.5381E-01  0.1141E+00
      4.564  0.5237E-01  0.1159E+00
      4.598  0.5469E-01  0.1177E+00
      4.632  0.5863E-01  0.1197E+00
      4.666  0.6123E-01  0.1218E+00
      4.700  0.6061E-01  0.1239E+00
      4.734  0.5711E-01  0.1258E+00
      4.768  0.5284E-01  0.1276E+00
      4.802  0.5034E-01  0.1293E+00
      4.836  0.5127E-01  0.1311E+00
      4.870  0.5553E-01  0.1329E+00
      4.904  0.6150E-01  0.1350E+00
      4.938  0.6727E-01  0.1373E+00
      4.972  0.7171E-01  0.1398E+00
      5.006  0.7433E-01  0.1423E+00
      5.040  0.7467E-01  0.1448E+00
      5.074  0.7231E-01  0.1473E+00
      5.108  0.6756E-01  0.1496E+00
      5.142  0.6166E-01  0.1517E+00
      5.176  0.5627E-01  0.1536E+00
      5.210  0.5272E-01  0.1554E+00
      5.244  0.5141E-01  0.1571E+00
      5.278  0.5204E-01  0.1589E+00
      5.312  0.5412E-01  0.1608E+00
      5.346  0.5727E-01  0.1627E+00
      5.380  0.6081E-01  0.1648E+00
      5.414  0.6362E-01  0.1669E+00
      5.448  0.6469E-01  0.1691E+00
      5.482  0.6370E-01  0.1713E+00
      5.517  0.6120E-01  0.1734E+00
      5.551  0.5827E-01  0.1754E+00
      5.585  0.5606E-01  0.1773E+00
      5.619  0.5540E-01  0.1792E+00
      5.653  0.5668E-01  0.1811E+00
      5.687  0.5996E-01  0.1831E+00
      5.721  0.6469E-01  0.1853E+00
      5.755  0.6944E-01  0.1877E+00
      5.789  0.7214E-01  0.1901E+00
      5.823  0.7103E-01  0.1926E+00
      5.857  0.6559E-01  0.1948E+00
      5.891  0.5696E-01  0.1967E+00
      5.925  0.4784E-01  0.1983E+00
      5.959  0.4151E-01  0.1998E+00
      5.993  0.4004E-01  0.2011E+00
      6.027  0.4282E-01  0.2026E+00
      6.061  0.4712E-01  0.2042E+00
      6.095  0.5040E-01  0.2059E+00
      6.129  0.5207E-01  0.2077E+00
      6.163  0.5303E-01  0.2095E+00
      6.197  0.5396E-01  0.2113E+00
      6.231  0.5451E-01  0.2132E+00
      6.265  0.5436E-01  0.2150E+00
      6.299  0.5425E-01  0.2169E+00
      6.333  0.5518E-01  0.2187E+00
      6.367  0.5662E-01  0.2207E+00
      6.401  0.5632E-01  0.2226E+00
      6.435  0.5268E-01  0.2244E+00
      6.469  0.4694E-01  0.2260E+00
      6.503  0.4226E-01  0.2274E+00
      6.537  0.4076E-01  0.2288E+00
      6.571  0.4180E-01  0.2302E+00
      6.605  0.4343E-01  0.2317E+00
      6.639  0.4446E-01  0.2332E+00
      6.673  0.4476E-01  0.2347E+00
      6.707  0.4416E-01  0.2362E+00
      6.741  0.4225E-01  0.2377E+00
      6.775  0.3925E-01  0.2390E+00
      6.809  0.3633E-01  0.2402E+00
      6.843  0.3470E-01  0.2414E+00
      6.877  0.3473E-01  0.2426E+00
      6.911  0.3587E-01  0.2438E+00
      6.945  0.3768E-01  0.2451E+00
      6.979  0.4065E-01  0.2465E+00
      7.013  0.4585E-01  0.2480E+00
      7.047  0.5315E-01  0.2498E+00
      7.081  0.6025E-01  0.2519E+00
      7.115  0.6416E-01  0.2541E+00
      7.149  0.6389E-01  0.2562E+00
      7.183  0.6151E-01  0.2583E+00
      7.217  0.6006E-01  0.2604E+00
      7.251  0.6043E-01  0.2624E+00
      7.285  0.6051E-01  0.2645E+00
      7.319  0.5721E-01  0.2664E+00
      7.353  0.4921E-01  0.2681E+00
      7.387  0.3788E-01  0.2694E+00
      7.421  0.2626E-01  0.2703E+00
      7.455  0.1712E-01  0.2709E+00
      7.489  0.1140E-01  0.2713E+00
      7.523  0.8177E-02  0.2715E+00
      7.557  0.5949E-02  0.2717E+00
      7.591  0.3937E-02  0.2719E+00
      7.625  0.2200E-02  0.2719E+00
      7.659  0.1002E-02  0.2720E+00
      7.693  0.3668E-03  0.2720E+00
      7.727  0.1073E-03  0.2720E+00
      7.761  0.2506E-04  0.2720E+00
      7.795  0.4663E-05  0.2720E+00
      7.829  0.6913E-06  0.2720E+00
      7.863  0.8161E-07  0.2720E+00
      7.897  0.7672E-08  0.2720E+00
      7.931  0.5741E-09  0.2720E+00
      7.965  0.3420E-10  0.2720E+00
      7.999  0.1621E-11  0.2720E+00
      8.033  0.6116E-13  0.2720E+00
      8.067  0.1835E-14  0.2720E+00
      8.101  0.4570E-16  0.2720E+00
      8.135  0.0000E+00  0.2720E+00
      8.169  0.0000E+00  0.2720E+00
      8.203  0.0000E+00  0.2720E+00
      8.237  0.0000E+00  0.2720E+00
      8.271  0.0000E+00  0.2720E+00
      8.305  0.0000E+00  0.2720E+00
      8.339  0.0000E+00  0.2720E+00
      8.373  0.0000E+00  0.2720E+00
      8.407  0.0000E+00  0.2720E+00
      8.441  0.0000E+00  0.2720E+00
      8.475  0.0000E+00  0.2720E+00
      8.509  0.0000E+00  0.2720E+00
