   20   20  500    1
  0.1295360E+02  0.5861746E-09  0.5861746E-09  0.7539918E-09  0.5000000E-15
  1.000000000000000E-004
  CAR 
 unknown system                          
    109      6     68
 
  0.0000000E+00  0.0000000E+00  0.0000000E+00  0.1250000E+00
    1       -0.693828   1.000000
    2        1.519377   1.000000
    3        1.763524   1.000000
    4        2.299397   1.000000
    5        2.454751   1.000000
    6        2.609032   1.000000
    7        2.668171   1.000000
    8        2.707479   1.000000
    9        2.707479   1.000000
   10        2.731538   1.000000
   11        2.857614   1.000000
   12        3.238145   1.000000
   13        3.246553   1.000000
   14        3.266007   1.000000
   15        3.266007   1.000000
   16        3.290552   1.000000
   17        3.567064   1.000000
   18        3.699548   1.000000
   19        3.699548   1.000000
   20        3.881040   1.000000
   21        3.881040   1.000000
   22        4.060447   1.000000
   23        4.213951   1.000000
   24        4.224973   1.000000
   25        4.283340   1.000000
   26        4.373601   1.000000
   27        4.373601   1.000000
   28        4.407707   1.000000
   29        4.631770   1.000000
   30        4.631770   1.000000
   31        4.640648   1.000000
   32        4.801192   1.000000
   33        4.962287   1.000000
   34        4.990120   1.000000
   35        4.990120   1.000000
   36        5.155670   1.000000
   37        5.155670   1.000000
   38        5.400177   1.000000
   39        5.400177   1.000000
   40        5.473148   1.000000
   41        5.502875   1.000000
   42        5.611816   1.000000
   43        5.802214   1.000000
   44        5.802214   1.000000
   45        5.849758   1.000000
   46        6.017405   0.999990
   47        6.126840   0.996808
   48        6.126840   0.996808
   49        6.212710   0.934856
   50        6.221412   0.917721
   51        6.392986   0.149982
   52        6.489449   0.008182
   53        6.489449   0.008182
   54        6.574059   0.000161
   55        6.700628   0.000000
   56        6.723078   0.000000
   57        6.723078   0.000000
   58        6.757968   0.000000
   59        6.811803   0.000000
   60        6.811803   0.000000
   61        6.813942   0.000000
   62        6.898500   0.000000
   63        7.036347   0.000000
   64        7.110469   0.000000
   65        7.144027   0.000000
   66        7.144028   0.000000
   67        7.201720   0.000000
   68        7.263525   0.000000
 
  0.5000000E+00  0.0000000E+00  0.0000000E+00  0.2500000E+00
    1        0.531949   1.000000
    2        0.707285   1.000000
    3        2.205768   1.000000
    4        2.322907   1.000000
    5        2.451532   1.000000
    6        2.496923   1.000000
    7        2.983294   1.000000
    8        3.051370   1.000000
    9        3.068755   1.000000
   10        3.162565   1.000000
   11        3.164865   1.000000
   12        3.314814   1.000000
   13        3.366193   1.000000
   14        3.410021   1.000000
   15        3.455475   1.000000
   16        3.468872   1.000000
   17        3.575401   1.000000
   18        3.631706   1.000000
   19        3.753460   1.000000
   20        3.780360   1.000000
   21        3.827862   1.000000
   22        3.846183   1.000000
   23        4.173314   1.000000
   24        4.201761   1.000000
   25        4.312712   1.000000
   26        4.325656   1.000000
   27        4.407135   1.000000
   28        4.408881   1.000000
   29        4.491685   1.000000
   30        4.568579   1.000000
   31        4.700735   1.000000
   32        4.720420   1.000000
   33        4.918204   1.000000
   34        4.984347   1.000000
   35        5.036921   1.000000
   36        5.040612   1.000000
   37        5.094471   1.000000
   38        5.240164   1.000000
   39        5.354442   1.000000
   40        5.421908   1.000000
   41        5.428289   1.000000
   42        5.447295   1.000000
   43        5.494568   1.000000
   44        5.600824   1.000000
   45        5.637853   1.000000
   46        5.704441   1.000000
   47        5.755799   1.000000
   48        5.805563   1.000000
   49        5.892565   1.000000
   50        5.932360   1.000000
   51        6.030913   0.999978
   52        6.104540   0.998828
   53        6.113041   0.998264
   54        6.218235   0.924333
   55        6.260591   0.798377
   56        6.312912   0.538201
   57        6.356394   0.301873
   58        6.399361   0.129941
   59        6.569867   0.000202
   60        6.640886   0.000003
   61        7.021157   0.000000
   62        7.052066   0.000000
   63        7.098743   0.000000
   64        7.128214   0.000000
   65        7.207040   0.000000
   66        7.246500   0.000000
   67        7.275665   0.000000
   68        7.337803   0.000000
 
  0.5000000E+00  0.5000000E+00  0.0000000E+00  0.1250000E+00
    1        1.575193   1.000000
    2        1.575193   1.000000
    3        1.589710   1.000000
    4        1.983048   1.000000
    5        3.083400   1.000000
    6        3.083400   1.000000
    7        3.088507   1.000000
    8        3.295199   1.000000
    9        3.334744   1.000000
   10        3.334744   1.000000
   11        3.360900   1.000000
   12        3.453529   1.000000
   13        3.480478   1.000000
   14        3.499752   1.000000
   15        3.499752   1.000000
   16        3.602528   1.000000
   17        3.803739   1.000000
   18        3.822402   1.000000
   19        3.822402   1.000000
   20        4.007789   1.000000
   21        4.082897   1.000000
   22        4.086682   1.000000
   23        4.135044   1.000000
   24        4.135044   1.000000
   25        4.361703   1.000000
   26        4.367851   1.000000
   27        4.370924   1.000000
   28        4.370924   1.000000
   29        4.445836   1.000000
   30        4.518897   1.000000
   31        4.518897   1.000000
   32        4.520970   1.000000
   33        4.601615   1.000000
   34        4.702500   1.000000
   35        4.775740   1.000000
   36        4.877595   1.000000
   37        4.877595   1.000000
   38        4.975054   1.000000
   39        5.033199   1.000000
   40        5.033199   1.000000
   41        5.128740   1.000000
   42        5.131764   1.000000
   43        5.131764   1.000000
   44        5.191672   1.000000
   45        5.316220   1.000000
   46        5.382412   1.000000
   47        5.579513   1.000000
   48        5.617811   1.000000
   49        5.617811   1.000000
   50        5.664843   1.000000
   51        5.759151   1.000000
   52        5.759151   1.000000
   53        5.868376   1.000000
   54        5.868376   1.000000
   55        6.013072   0.999993
   56        6.028160   0.999981
   57        6.188088   0.968640
   58        6.188088   0.968640
   59        6.277584   0.724252
   60        6.457019   0.026064
   61        6.677815   0.000000
   62        6.677815   0.000000
   63        7.025412   0.000000
   64        7.106728   0.000000
   65        7.248973   0.000000
   66        7.248973   0.000000
   67        7.334416   0.000000
   68        7.334416   0.000000
 
  0.0000000E+00  0.0000000E+00  0.5000000E+00  0.1250000E+00
    1       -0.370003   1.000000
    2        0.390884   1.000000
    3        2.359312   1.000000
    4        2.381544   1.000000
    5        2.551236   1.000000
    6        2.697991   1.000000
    7        2.727088   1.000000
    8        2.727088   1.000000
    9        2.761513   1.000000
   10        2.835913   1.000000
   11        2.879702   1.000000
   12        3.210386   1.000000
   13        3.248627   1.000000
   14        3.248627   1.000000
   15        3.284331   1.000000
   16        3.329407   1.000000
   17        3.509815   1.000000
   18        3.648945   1.000000
   19        3.648945   1.000000
   20        3.804238   1.000000
   21        4.033091   1.000000
   22        4.033091   1.000000
   23        4.235156   1.000000
   24        4.235156   1.000000
   25        4.239647   1.000000
   26        4.269813   1.000000
   27        4.315011   1.000000
   28        4.506145   1.000000
   29        4.597580   1.000000
   30        4.597580   1.000000
   31        4.625677   1.000000
   32        4.876341   1.000000
   33        4.955472   1.000000
   34        4.955472   1.000000
   35        5.076986   1.000000
   36        5.324110   1.000000
   37        5.324110   1.000000
   38        5.417289   1.000000
   39        5.515202   1.000000
   40        5.527129   1.000000
   41        5.527129   1.000000
   42        5.577713   1.000000
   43        5.599061   1.000000
   44        5.690739   1.000000
   45        5.690739   1.000000
   46        5.773638   1.000000
   47        5.911523   1.000000
   48        6.090857   0.999394
   49        6.194653   0.961497
   50        6.199424   0.955515
   51        6.199424   0.955515
   52        6.407897   0.106128
   53        6.407897   0.106128
   54        6.577976   0.000130
   55        6.577976   0.000130
   56        6.714446   0.000000
   57        6.714447   0.000000
   58        6.733450   0.000000
   59        6.758229   0.000000
   60        6.882261   0.000000
   61        6.923312   0.000000
   62        7.060153   0.000000
   63        7.150331   0.000000
   64        7.150331   0.000000
   65        7.296629   0.000000
   66        7.324787   0.000000
   67        7.345345   0.000000
   68        7.345345   0.000000
 
  0.5000000E+00  0.0000000E+00  0.5000000E+00  0.2500000E+00
    1        0.729581   1.000000
    2        0.951806   1.000000
    3        1.531432   1.000000
    4        1.570174   1.000000
    5        2.850189   1.000000
    6        2.981829   1.000000
    7        2.986208   1.000000
    8        3.132741   1.000000
    9        3.166118   1.000000
   10        3.173541   1.000000
   11        3.292961   1.000000
   12        3.324921   1.000000
   13        3.386682   1.000000
   14        3.397147   1.000000
   15        3.408712   1.000000
   16        3.430017   1.000000
   17        3.608108   1.000000
   18        3.681101   1.000000
   19        3.687868   1.000000
   20        3.710353   1.000000
   21        3.744917   1.000000
   22        3.774667   1.000000
   23        4.136771   1.000000
   24        4.169636   1.000000
   25        4.403789   1.000000
   26        4.416803   1.000000
   27        4.476597   1.000000
   28        4.628304   1.000000
   29        4.665221   1.000000
   30        4.723447   1.000000
   31        4.792256   1.000000
   32        4.835946   1.000000
   33        4.884637   1.000000
   34        4.914029   1.000000
   35        4.926611   1.000000
   36        4.997555   1.000000
   37        5.035598   1.000000
   38        5.088316   1.000000
   39        5.204598   1.000000
   40        5.247455   1.000000
   41        5.255405   1.000000
   42        5.315921   1.000000
   43        5.402406   1.000000
   44        5.500072   1.000000
   45        5.533297   1.000000
   46        5.682039   1.000000
   47        5.728948   1.000000
   48        5.772551   1.000000
   49        5.830554   1.000000
   50        5.846218   1.000000
   51        6.026255   0.999983
   52        6.056619   0.999901
   53        6.288406   0.670924
   54        6.343495   0.368204
   55        6.383340   0.184031
   56        6.396010   0.140232
   57        6.422603   0.072784
   58        6.541181   0.000867
   59        6.592573   0.000057
   60        6.671206   0.000000
   61        6.838961   0.000000
   62        6.922015   0.000000
   63        6.959453   0.000000
   64        7.072067   0.000000
   65        7.087718   0.000000
   66        7.131625   0.000000
   67        7.260058   0.000000
   68        7.380840   0.000000
 
  0.5000000E+00  0.5000000E+00  0.5000000E+00  0.1250000E+00
    1        1.716718   1.000000
    2        1.798464   1.000000
    3        1.798464   1.000000
    4        2.177371   1.000000
    5        2.515323   1.000000
    6        2.515323   1.000000
    7        2.667124   1.000000
    8        2.787825   1.000000
    9        3.337522   1.000000
   10        3.337522   1.000000
   11        3.429845   1.000000
   12        3.531070   1.000000
   13        3.741827   1.000000
   14        3.775113   1.000000
   15        3.775113   1.000000
   16        3.836537   1.000000
   17        3.852649   1.000000
   18        3.852649   1.000000
   19        3.876269   1.000000
   20        3.904040   1.000000
   21        4.065284   1.000000
   22        4.065284   1.000000
   23        4.070010   1.000000
   24        4.119638   1.000000
   25        4.153653   1.000000
   26        4.347081   1.000000
   27        4.347081   1.000000
   28        4.393773   1.000000
   29        4.398065   1.000000
   30        4.482293   1.000000
   31        4.640777   1.000000
   32        4.640777   1.000000
   33        4.681164   1.000000
   34        4.686375   1.000000
   35        4.761394   1.000000
   36        4.771447   1.000000
   37        4.882730   1.000000
   38        4.882730   1.000000
   39        5.053071   1.000000
   40        5.053071   1.000000
   41        5.126625   1.000000
   42        5.126625   1.000000
   43        5.147735   1.000000
   44        5.242519   1.000000
   45        5.289584   1.000000
   46        5.358900   1.000000
   47        5.358900   1.000000
   48        5.457602   1.000000
   49        5.740091   1.000000
   50        5.747549   1.000000
   51        5.803516   1.000000
   52        5.803516   1.000000
   53        5.868815   1.000000
   54        5.868815   1.000000
   55        6.069124   0.999803
   56        6.116199   0.997998
   57        6.224032   0.911949
   58        6.224032   0.911949
   59        6.396336   0.139205
   60        6.555119   0.000435
   61        6.923780   0.000000
   62        6.923780   0.000000
   63        7.084298   0.000000
   64        7.260140   0.000000
   65        7.295801   0.000000
   66        7.295801   0.000000
   67        7.509470   0.000000
   68        7.509473   0.000000
