 running on    4 total cores
 distrk:  each k-point on    4 cores,    1 groups
 distr:  one band on    1 cores,    4 groups
 using from now: INCAR     
 vasp.5.4.4.18Apr17-6-g9f103f2a35 (build Jul 11 2019 11:52:51) complex          
  
 POSCAR found type information on POSCAR  V  Fe
 POSCAR found :  2 types and      20 ions
 scaLAPACK will be used

 ----------------------------------------------------------------------------- 
|                                                                             |
|  ADVICE TO THIS USER RUNNING 'VASP/VAMP'   (HEAR YOUR MASTER'S VOICE ...):  |
|                                                                             |
|      You have a (more or less) 'large supercell' and for larger cells       |
|      it might be more efficient to use real space projection opertators     |
|      So try LREAL= Auto  in the INCAR   file.                               |
|      Mind:          For very  accurate calculation you might also keep the  |
|      reciprocal projection scheme          (i.e. LREAL=.FALSE.)             |
|                                                                             |
 ----------------------------------------------------------------------------- 

 LDA part: xc-table for Pade appr. of Perdew
 POSCAR, INCAR and KPOINTS ok, starting setup
 FFT: planning ...
 WAVECAR not read
 entering main loop
       N       E                     dE             d eps       ncg     rms          rms(c)
DAV:   1     0.672845654012E+03    0.67285E+03   -0.24468E+04   856   0.115E+03
DAV:   2    -0.690153398208E+02   -0.74186E+03   -0.71827E+03   816   0.348E+02
DAV:   3    -0.191365899498E+03   -0.12235E+03   -0.11585E+03  1304   0.179E+02
DAV:   4    -0.204155853231E+03   -0.12790E+02   -0.12066E+02  1280   0.646E+01
DAV:   5    -0.205295065026E+03   -0.11392E+01   -0.10861E+01  1384   0.145E+01    0.940E+01
DAV:   6    -0.696574590661E+03   -0.49128E+03   -0.83474E+03  1512   0.659E+02    0.609E+02
DAV:   7    -0.546361485279E+03    0.15021E+03   -0.17864E+03  1192   0.285E+02    0.144E+02
DAV:   8    -0.181397641849E+03    0.36496E+03   -0.13121E+03  1484   0.189E+02    0.707E+01
DAV:   9    -0.149055178655E+03    0.32342E+02   -0.34787E+02  1312   0.117E+02    0.489E+01
DAV:  10    -0.146160430819E+03    0.28947E+01   -0.49208E+01  1328   0.459E+01    0.479E+01
DAV:  11    -0.146696243865E+03   -0.53581E+00   -0.43050E+00  1184   0.143E+01    0.498E+01
DAV:  12    -0.163144463312E+03   -0.16448E+02   -0.47640E+01  1552   0.571E+01    0.694E+01
DAV:  13    -0.156117966446E+03    0.70265E+01   -0.53597E+01  1472   0.551E+01    0.671E+01
DAV:  14    -0.158360567608E+03   -0.22426E+01   -0.63944E+00  1368   0.144E+01    0.676E+01
DAV:  15    -0.157968693877E+03    0.39187E+00   -0.46642E-01  1256   0.509E+00    0.690E+01
DAV:  16    -0.157130749650E+03    0.83794E+00   -0.34391E+01  1600   0.482E+01    0.939E+01
DAV:  17    -0.161911107163E+03   -0.47804E+01   -0.58352E+01  1552   0.596E+01    0.116E+02
DAV:  18    -0.174702894464E+03   -0.12792E+02   -0.31842E+01  1592   0.359E+01    0.137E+02
DAV:  19    -0.165328726546E+03    0.93742E+01   -0.12800E+01  1408   0.226E+01    0.123E+02
DAV:  20    -0.162477245753E+03    0.28515E+01   -0.26959E+00  1456   0.122E+01    0.117E+02
DAV:  21    -0.153164678777E+03    0.93126E+01   -0.60523E+00  1312   0.176E+01    0.959E+01
DAV:  22    -0.144374830679E+03    0.87898E+01   -0.12246E+01  1288   0.208E+01    0.664E+01
DAV:  23    -0.143100363240E+03    0.12745E+01   -0.33892E+00  1192   0.179E+01    0.608E+01
DAV:  24    -0.141284132598E+03    0.18162E+01   -0.14972E+00  1328   0.709E+00    0.504E+01
DAV:  25    -0.138757136840E+03    0.25270E+01   -0.20439E+00  1296   0.903E+00    0.334E+01
DAV:  26    -0.137210519897E+03    0.15466E+01   -0.32222E+00  1280   0.109E+01    0.160E+01
DAV:  27    -0.137140867785E+03    0.69652E-01   -0.48825E-01  1096   0.672E+00    0.125E+01
DAV:  28    -0.136957953320E+03    0.18291E+00   -0.32861E-01  1320   0.337E+00    0.688E+00
DAV:  29    -0.136905372445E+03    0.52581E-01   -0.12421E-01  1304   0.196E+00    0.371E+00
DAV:  30    -0.136898373917E+03    0.69985E-02   -0.59987E-02  1308   0.126E+00    0.245E+00
DAV:  31    -0.136900700354E+03   -0.23264E-02   -0.10848E-02  1312   0.737E-01    0.235E+00
DAV:  32    -0.136896177012E+03    0.45233E-02   -0.80114E-03  1464   0.769E-01    0.180E+00
DAV:  33    -0.136895165798E+03    0.10112E-02   -0.60033E-03  1552   0.484E-01    0.159E+00
DAV:  34    -0.136895312350E+03   -0.14655E-03   -0.26981E-03  1384   0.346E-01    0.166E+00
DAV:  35    -0.136895359116E+03   -0.46766E-04   -0.14382E-03  1152   0.329E-01    0.157E+00
DAV:  36    -0.136894837809E+03    0.52131E-03   -0.89482E-04  1456   0.187E-01    0.130E+00
DAV:  37    -0.136894646959E+03    0.19085E-03   -0.42689E-04  1000   0.157E-01    0.110E+00
DAV:  38    -0.136894649602E+03   -0.26425E-05   -0.87095E-05  1168   0.671E-02
   1 F= -.13689465E+03 E0= -.13683709E+03  d E =-.136895E+03
 curvature:   0.00 expect dE= 0.000E+00 dE for cont linesearch  0.000E+00
 trial: gam= 0.00000 g(F)=  0.237E+02 g(S)=  0.203E+02 ort = 0.000E+00 (trialstep = 0.100E+01)
 search vector abs. value=  0.439E+02
 bond charge predicted
       N       E                     dE             d eps       ncg     rms          rms(c)
DAV:   1    -0.217422754150E+03   -0.80528E+02   -0.43796E+03   832   0.449E+02    0.131E+02
DAV:   2    -0.711757499179E+03   -0.49433E+03   -0.79743E+03  1416   0.520E+02    0.412E+02
DAV:   3    -0.268608941392E+03    0.44315E+03   -0.16680E+03   828   0.283E+02    0.117E+02
DAV:   4    -0.182146686179E+03    0.86462E+02   -0.23449E+03  1632   0.139E+02    0.792E+01
DAV:   5    -0.180877085052E+03    0.12696E+01   -0.10616E+03  1480   0.178E+02    0.670E+01
DAV:   6    -0.164694999871E+03    0.16182E+02   -0.26392E+02  1576   0.928E+01    0.560E+01
DAV:   7    -0.164600320574E+03    0.94679E-01   -0.16426E+02  1520   0.884E+01    0.526E+01
DAV:   8    -0.160949228369E+03    0.36511E+01   -0.23623E+01  1480   0.230E+01    0.497E+01
DAV:   9    -0.156498854103E+03    0.44504E+01   -0.16816E+01  1520   0.216E+01    0.469E+01
DAV:  10    -0.155411392518E+03    0.10875E+01   -0.10690E+01  1560   0.161E+01    0.458E+01
DAV:  11    -0.158555984695E+03   -0.31446E+01   -0.45202E+01  1552   0.320E+01    0.497E+01
DAV:  12    -0.153996682064E+03    0.45593E+01   -0.15095E+01  1576   0.227E+01    0.393E+01
DAV:  13    -0.155162730542E+03   -0.11660E+01   -0.27429E+01  1528   0.247E+01    0.383E+01
DAV:  14    -0.156173813760E+03   -0.10111E+01   -0.14105E+01  1424   0.173E+01    0.331E+01
DAV:  15    -0.156410436253E+03   -0.23662E+00   -0.13117E+01  1584   0.172E+01    0.357E+01
DAV:  16    -0.153164859973E+03    0.32456E+01   -0.11422E+01  1440   0.178E+01    0.266E+01
DAV:  17    -0.151809662576E+03    0.13552E+01   -0.74571E+00  1536   0.127E+01    0.184E+01
DAV:  18    -0.151818763870E+03   -0.91013E-02   -0.93488E-01  1344   0.475E+00    0.185E+01
DAV:  19    -0.151593692685E+03    0.22507E+00   -0.30521E-01  1512   0.245E+00    0.163E+01
DAV:  20    -0.151473617895E+03    0.12007E+00   -0.15588E-01  1536   0.161E+00    0.133E+01
DAV:  21    -0.151366971193E+03    0.10665E+00   -0.35472E-01  1528   0.229E+00    0.113E+01
DAV:  22    -0.151311748850E+03    0.55222E-01   -0.22413E-01  1536   0.197E+00    0.880E+00
DAV:  23    -0.151279949938E+03    0.31799E-01   -0.54781E-02  1488   0.971E-01    0.666E+00
DAV:  24    -0.151250053680E+03    0.29896E-01   -0.41265E-02  1456   0.860E-01    0.463E+00
DAV:  25    -0.151229127904E+03    0.20926E-01   -0.30436E-02  1472   0.735E-01    0.270E+00
DAV:  26    -0.151224153930E+03    0.49740E-02   -0.10459E-02  1440   0.509E-01    0.206E+00
DAV:  27    -0.151221716703E+03    0.24372E-02   -0.38643E-03  1424   0.276E-01    0.145E+00
DAV:  28    -0.151219614096E+03    0.21026E-02   -0.33621E-03  1456   0.278E-01    0.872E-01
DAV:  29    -0.151219488977E+03    0.12512E-03   -0.37414E-04  1368   0.105E-01    0.846E-01
DAV:  30    -0.151218997949E+03    0.49103E-03   -0.14246E-03  1352   0.201E-01    0.534E-01
DAV:  31    -0.151218588969E+03    0.40898E-03   -0.38828E-03  1528   0.270E-01    0.226E-01
DAV:  32    -0.151218518066E+03    0.70903E-04   -0.37654E-04  1496   0.913E-02    0.865E-02
DAV:  33    -0.151218550074E+03   -0.32007E-04   -0.27887E-04  1344   0.639E-02    0.106E-01
DAV:  34    -0.151218527143E+03    0.22931E-04   -0.10738E-04  1032   0.485E-02    0.332E-02
DAV:  35    -0.151218526305E+03    0.83702E-06   -0.14046E-05   672   0.175E-02
   2 F= -.15121853E+03 E0= -.15112699E+03  d E =-.143239E+02
 trial-energy change:  -14.323877  1 .order  -13.902109  -43.943836   16.139618
 step:   0.7395(harm=  0.7314)  dis= 0.24931  next Energy=  -153.313306 (dE=-0.164E+02)
 bond charge predicted
       N       E                     dE             d eps       ncg     rms          rms(c)
DAV:   1    -0.160893349199E+03   -0.96748E+01   -0.21409E+02   876   0.833E+01    0.372E+01
DAV:   2    -0.280206837833E+03   -0.11931E+03   -0.80545E+02  1564   0.246E+02    0.129E+02
DAV:   3    -0.194878128696E+03    0.85329E+02   -0.45260E+02  1368   0.925E+01    0.533E+01
DAV:   4    -0.161922945721E+03    0.32955E+02   -0.20780E+02  1536   0.731E+01    0.342E+01
DAV:   5    -0.154511456729E+03    0.74115E+01   -0.73210E+01  1568   0.523E+01    0.157E+01
DAV:   6    -0.154355620815E+03    0.15584E+00   -0.15622E+01  1576   0.245E+01    0.132E+01
DAV:   7    -0.154276840286E+03    0.78781E-01   -0.90843E+00  1552   0.167E+01    0.141E+01
DAV:   8    -0.153905169365E+03    0.37167E+00   -0.13045E+01  1468   0.191E+01    0.112E+01
DAV:   9    -0.153598997996E+03    0.30617E+00   -0.27430E+00  1600   0.989E+00    0.668E+00
DAV:  10    -0.153644463729E+03   -0.45466E-01   -0.34417E+00  1608   0.112E+01    0.837E+00
DAV:  11    -0.153560379415E+03    0.84084E-01   -0.93535E-01  1360   0.514E+00    0.683E+00
DAV:  12    -0.153373461460E+03    0.18692E+00   -0.64635E-01  1608   0.505E+00    0.278E+00
DAV:  13    -0.153375455571E+03   -0.19941E-02   -0.46289E-01  1616   0.384E+00    0.243E+00
DAV:  14    -0.153361501560E+03    0.13954E-01   -0.10019E-01  1512   0.209E+00    0.159E+00
DAV:  15    -0.153356943692E+03    0.45579E-02   -0.26246E-02  1592   0.957E-01    0.116E+00
DAV:  16    -0.153355030990E+03    0.19127E-02   -0.10706E-02  1528   0.608E-01    0.491E-01
DAV:  17    -0.153355169123E+03   -0.13813E-03   -0.31451E-03  1528   0.333E-01    0.501E-01
DAV:  18    -0.153354661931E+03    0.50719E-03   -0.56097E-04  1480   0.169E-01    0.330E-01
DAV:  19    -0.153354345202E+03    0.31673E-03   -0.11827E-03  1608   0.181E-01    0.878E-02
DAV:  20    -0.153354366982E+03   -0.21779E-04   -0.10371E-04  1192   0.699E-02    0.729E-02
DAV:  21    -0.153354347962E+03    0.19020E-04   -0.36505E-05   792   0.508E-02    0.299E-02
DAV:  22    -0.153354349290E+03   -0.13280E-05   -0.33965E-05   872   0.197E-02
   3 F= -.15335435E+03 E0= -.15327484E+03  d E =-.164597E+02
 curvature:  -0.37 expect dE=-0.374E+01 dE for cont linesearch -0.731E-01
 ZBRENT: interpolating
 opt :   0.6927  next Energy=  -153.423673 (dE=-0.165E+02)
 bond charge predicted
       N       E                     dE             d eps       ncg     rms          rms(c)
DAV:   1    -0.153654913591E+03   -0.30057E+00   -0.75975E+00   940   0.167E+01    0.715E+00
DAV:   2    -0.166497845146E+03   -0.12843E+02   -0.74774E+01  1600   0.603E+01    0.403E+01
DAV:   3    -0.153489659303E+03    0.13008E+02   -0.49493E+01  1624   0.477E+01    0.916E+00
DAV:   4    -0.153487816868E+03    0.18424E-02   -0.74515E+00  1496   0.148E+01    0.478E+00
DAV:   5    -0.153485442839E+03    0.23740E-02   -0.17407E+00  1592   0.667E+00    0.372E+00
DAV:   6    -0.153444336189E+03    0.41107E-01   -0.60899E-01  1544   0.587E+00    0.314E+00
DAV:   7    -0.153422910074E+03    0.21426E-01   -0.31919E-01  1568   0.361E+00    0.273E+00
DAV:   8    -0.153405678595E+03    0.17231E-01   -0.18646E-01  1600   0.246E+00    0.159E+00
DAV:   9    -0.153394777166E+03    0.10901E-01   -0.10581E-01  1592   0.197E+00    0.681E-01
DAV:  10    -0.153396881989E+03   -0.21048E-02   -0.49481E-02  1504   0.127E+00    0.104E+00
DAV:  11    -0.153393875016E+03    0.30070E-02   -0.14617E-02  1496   0.795E-01    0.619E-01
DAV:  12    -0.153392741240E+03    0.11338E-02   -0.81784E-03  1456   0.545E-01    0.417E-01
DAV:  13    -0.153392066921E+03    0.67432E-03   -0.48901E-03  1568   0.420E-01    0.196E-01
DAV:  14    -0.153391882044E+03    0.18488E-03   -0.20558E-03  1528   0.264E-01    0.646E-02
DAV:  15    -0.153391888170E+03   -0.61268E-05   -0.13776E-04  1224   0.798E-02    0.194E-02
DAV:  16    -0.153391882594E+03    0.55760E-05   -0.76571E-06   648   0.186E-02
   4 F= -.15339188E+03 E0= -.15331495E+03  d E =-.164972E+02
 curvature:  -0.35 expect dE=-0.310E+01 dE for cont linesearch -0.754E-03
 trial: gam= 0.21058 g(F)=  0.439E+01 g(S)=  0.456E+01 ort =-0.309E+00 (trialstep = 0.939E+00)
 search vector abs. value=  0.108E+02
 bond charge predicted
       N       E                     dE             d eps       ncg     rms          rms(c)
DAV:   1    -0.165699330361E+03   -0.12307E+02   -0.61217E+02   816   0.940E+01    0.296E+01
DAV:   2    -0.254492273946E+03   -0.88793E+02   -0.80432E+02  1528   0.239E+02    0.875E+01
DAV:   3    -0.172765688598E+03    0.81727E+02   -0.28270E+02  1420   0.106E+02    0.350E+01
DAV:   4    -0.161240041340E+03    0.11526E+02   -0.81002E+01  1544   0.607E+01    0.152E+01
DAV:   5    -0.160490755785E+03    0.74929E+00   -0.24899E+01  1392   0.349E+01    0.103E+01
DAV:   6    -0.161166569881E+03   -0.67581E+00   -0.16032E+01  1616   0.283E+01    0.144E+01
DAV:   7    -0.160486423091E+03    0.68015E+00   -0.82932E+00  1616   0.213E+01    0.920E+00
DAV:   8    -0.160097686922E+03    0.38874E+00   -0.42836E+00  1616   0.153E+01    0.745E+00
DAV:   9    -0.160023118049E+03    0.74569E-01   -0.19190E+00  1600   0.811E+00    0.609E+00
DAV:  10    -0.159842834083E+03    0.18028E+00   -0.11884E+00  1384   0.690E+00    0.304E+00
DAV:  11    -0.159818694153E+03    0.24140E-01   -0.31695E-01  1560   0.431E+00    0.231E+00
DAV:  12    -0.159814521267E+03    0.41729E-02   -0.11876E-01  1592   0.234E+00    0.199E+00
DAV:  13    -0.159812881362E+03    0.16399E-02   -0.64439E-02  1328   0.152E+00    0.159E+00
DAV:  14    -0.159801893836E+03    0.10988E-01   -0.61244E-02  1400   0.150E+00    0.697E-01
DAV:  15    -0.159801533519E+03    0.36032E-03   -0.91270E-03  1376   0.609E-01    0.579E-01
DAV:  16    -0.159800674302E+03    0.85922E-03   -0.29598E-03  1480   0.339E-01    0.413E-01
DAV:  17    -0.159800175609E+03    0.49869E-03   -0.17690E-03  1616   0.253E-01    0.212E-01
DAV:  18    -0.159800073869E+03    0.10174E-03   -0.74406E-04  1616   0.161E-01    0.847E-02
DAV:  19    -0.159800051257E+03    0.22612E-04   -0.14078E-04  1224   0.715E-02    0.173E-02
DAV:  20    -0.159800053861E+03   -0.26044E-05   -0.10451E-05   640   0.247E-02
   5 F= -.15980005E+03 E0= -.15972077E+03  d E =-.640817E+01
 trial-energy change:   -6.408171  1 .order   -6.339897   -8.333887   -4.345907
 step:   1.7935(harm=  1.9613)  dis= 0.39261  next Energy=  -161.831097 (dE=-0.844E+01)
 bond charge predicted
       N       E                     dE             d eps       ncg     rms          rms(c)
DAV:   1    -0.165087635807E+03   -0.52876E+01   -0.50343E+02   824   0.883E+01    0.261E+01
DAV:   2    -0.223194474828E+03   -0.58107E+02   -0.51984E+02  1360   0.206E+02    0.792E+01
DAV:   3    -0.168050470331E+03    0.55144E+02   -0.21018E+02  1400   0.112E+02    0.302E+01
DAV:   4    -0.162510481045E+03    0.55400E+01   -0.76640E+01  1544   0.611E+01    0.136E+01
DAV:   5    -0.161706304666E+03    0.80418E+00   -0.21935E+01  1376   0.350E+01    0.878E+00
DAV:   6    -0.161951567302E+03   -0.24526E+00   -0.10627E+01  1444   0.206E+01    0.979E+00
DAV:   7    -0.161598211383E+03    0.35336E+00   -0.74372E+00  1560   0.187E+01    0.674E+00
DAV:   8    -0.161277662274E+03    0.32055E+00   -0.19652E+00  1552   0.125E+01    0.471E+00
DAV:   9    -0.161273225577E+03    0.44367E-02   -0.11326E+00  1560   0.705E+00    0.426E+00
DAV:  10    -0.161162910887E+03    0.11031E+00   -0.52775E-01  1592   0.572E+00    0.159E+00
DAV:  11    -0.161172545166E+03   -0.96343E-02   -0.14640E-01  1560   0.335E+00    0.170E+00
DAV:  12    -0.161162086260E+03    0.10459E-01   -0.64494E-02  1600   0.219E+00    0.122E+00
DAV:  13    -0.161161775633E+03    0.31063E-03   -0.25169E-02  1368   0.117E+00    0.992E-01
DAV:  14    -0.161158149393E+03    0.36262E-02   -0.14205E-02  1584   0.916E-01    0.474E-01
DAV:  15    -0.161157616618E+03    0.53277E-03   -0.24446E-03  1368   0.392E-01    0.270E-01
DAV:  16    -0.161157571898E+03    0.44720E-04   -0.61985E-04  1368   0.164E-01    0.225E-01
DAV:  17    -0.161157456303E+03    0.11559E-03   -0.21957E-04  1392   0.974E-02    0.149E-01
DAV:  18    -0.161157378230E+03    0.78073E-04   -0.27978E-04  1504   0.101E-01    0.485E-02
DAV:  19    -0.161157371433E+03    0.67976E-05   -0.29808E-05   816   0.393E-02
   6 F= -.16115737E+03 E0= -.16109120E+03  d E =-.776549E+01
 curvature:  -1.16 expect dE=-0.499E+01 dE for cont linesearch -0.386E+00
 ZBRENT: interpolating
 opt :   1.5453  next Energy=  -161.392556 (dE=-0.800E+01)
 bond charge predicted
       N       E                     dE             d eps       ncg     rms          rms(c)
DAV:   1    -0.161832798499E+03   -0.67542E+00   -0.50343E+01  1220   0.367E+01    0.789E+00
DAV:   2    -0.173628982852E+03   -0.11796E+02   -0.82557E+01  1528   0.612E+01    0.434E+01
DAV:   3    -0.161346448421E+03    0.12283E+02   -0.61996E+01  1608   0.586E+01    0.649E+00
DAV:   4    -0.161501444284E+03   -0.15500E+00   -0.69353E+00  1404   0.185E+01    0.504E+00
DAV:   5    -0.161601034812E+03   -0.99591E-01   -0.27943E+00  1608   0.129E+01    0.504E+00
DAV:   6    -0.161410004387E+03    0.19103E+00   -0.14778E+00  1608   0.861E+00    0.267E+00
DAV:   7    -0.161393812167E+03    0.16192E-01   -0.42336E-01  1632   0.526E+00    0.206E+00
DAV:   8    -0.161371770834E+03    0.22041E-01   -0.15733E-01  1552   0.352E+00    0.105E+00
DAV:   9    -0.161365519384E+03    0.62514E-02   -0.10401E-01  1456   0.225E+00    0.813E-01
DAV:  10    -0.161363921491E+03    0.15979E-02   -0.14340E-02  1280   0.990E-01    0.536E-01
DAV:  11    -0.161363915919E+03    0.55729E-05   -0.12889E-02  1404   0.906E-01    0.535E-01
DAV:  12    -0.161362485592E+03    0.14303E-02   -0.64954E-03  1464   0.576E-01    0.197E-01
DAV:  13    -0.161362338301E+03    0.14729E-03   -0.31807E-03  1388   0.405E-01    0.126E-01
DAV:  14    -0.161362280314E+03    0.57988E-04   -0.51634E-04  1316   0.196E-01    0.512E-02
DAV:  15    -0.161362297584E+03   -0.17270E-04   -0.79760E-05  1120   0.548E-02    0.397E-02
DAV:  16    -0.161362298138E+03   -0.55350E-06   -0.52336E-05   944   0.515E-02
   7 F= -.16136230E+03 E0= -.16130068E+03  d E =-.797042E+01
 curvature:  -0.71 expect dE=-0.149E+01 dE for cont linesearch -0.790E-02
 trial: gam= 0.28335 g(F)=  0.169E+01 g(S)=  0.422E+00 ort = 0.347E+00 (trialstep = 0.106E+01)
 search vector abs. value=  0.317E+01
 bond charge predicted
       N       E                     dE             d eps       ncg     rms          rms(c)
DAV:   1    -0.162793592461E+03   -0.14313E+01   -0.25050E+02   896   0.682E+01    0.109E+01
DAV:   2    -0.187273688619E+03   -0.24480E+02   -0.19994E+02  1488   0.110E+02    0.549E+01
DAV:   3    -0.163224535046E+03    0.24049E+02   -0.99687E+01  1584   0.640E+01    0.114E+01
DAV:   4    -0.163202931259E+03    0.21604E-01   -0.13786E+01  1584   0.231E+01    0.660E+00
DAV:   5    -0.163239958285E+03   -0.37027E-01   -0.22346E+00  1544   0.115E+01    0.615E+00
DAV:   6    -0.163069403751E+03    0.17055E+00   -0.14458E+00  1544   0.879E+00    0.306E+00
DAV:   7    -0.163120720587E+03   -0.51317E-01   -0.93931E-01  1440   0.639E+00    0.383E+00
DAV:   8    -0.163130402555E+03   -0.96820E-02   -0.12791E+00  1576   0.660E+00    0.399E+00
DAV:   9    -0.163007950503E+03    0.12245E+00   -0.83747E-01  1448   0.593E+00    0.146E+00
DAV:  10    -0.163007394474E+03    0.55603E-03   -0.13641E-01  1328   0.260E+00    0.109E+00
DAV:  11    -0.162999371068E+03    0.80234E-02   -0.60693E-02  1472   0.172E+00    0.337E-01
DAV:  12    -0.163000033422E+03   -0.66235E-03   -0.19809E-02  1344   0.925E-01    0.454E-01
DAV:  13    -0.162998343884E+03    0.16895E-02   -0.15104E-02  1304   0.829E-01    0.146E-01
DAV:  14    -0.162998427844E+03   -0.83960E-04   -0.25018E-03  1368   0.372E-01    0.147E-01
DAV:  15    -0.162998238770E+03    0.18907E-03   -0.11421E-03  1344   0.244E-01    0.498E-02
DAV:  16    -0.162998240397E+03   -0.16261E-05   -0.11938E-04  1192   0.682E-02    0.260E-02
DAV:  17    -0.162998239680E+03    0.71633E-06   -0.14371E-05   616   0.324E-02
   8 F= -.16299824E+03 E0= -.16292894E+03  d E =-.163594E+01
 trial-energy change:   -1.635942  1 .order   -1.667918   -2.339456   -0.996379
 step:   2.1715(harm=  1.8462)  dis= 0.21661  next Energy=  -163.483862 (dE=-0.212E+01)
 bond charge predicted
       N       E                     dE             d eps       ncg     rms          rms(c)
DAV:   1    -0.163409410166E+03   -0.41117E+00   -0.27279E+02   872   0.713E+01    0.115E+01
DAV:   2    -0.191646680593E+03   -0.28237E+02   -0.24396E+02  1512   0.114E+02    0.573E+01
DAV:   3    -0.163534635176E+03    0.28112E+02   -0.10724E+02  1568   0.643E+01    0.107E+01
DAV:   4    -0.163612868781E+03   -0.78234E-01   -0.16361E+01  1488   0.241E+01    0.564E+00
DAV:   5    -0.163799469439E+03   -0.18660E+00   -0.31203E+00  1552   0.122E+01    0.777E+00
DAV:   6    -0.163545007305E+03    0.25446E+00   -0.16329E+00  1552   0.101E+01    0.292E+00
DAV:   7    -0.163590283326E+03   -0.45276E-01   -0.10262E+00  1352   0.665E+00    0.352E+00
DAV:   8    -0.163528317964E+03    0.61965E-01   -0.84406E-01  1560   0.569E+00    0.290E+00
DAV:   9    -0.163481472995E+03    0.46845E-01   -0.51945E-01  1472   0.461E+00    0.211E+00
DAV:  10    -0.163471755268E+03    0.97177E-02   -0.13739E-01  1464   0.259E+00    0.130E+00
DAV:  11    -0.163461429266E+03    0.10326E-01   -0.78155E-02  1544   0.177E+00    0.428E-01
DAV:  12    -0.163463465545E+03   -0.20363E-02   -0.28831E-02  1384   0.105E+00    0.634E-01
DAV:  13    -0.163460371990E+03    0.30936E-02   -0.21645E-02  1408   0.963E-01    0.235E-01
DAV:  14    -0.163460582690E+03   -0.21070E-03   -0.42536E-03  1368   0.450E-01    0.201E-01
DAV:  15    -0.163460242116E+03    0.34057E-03   -0.22164E-03  1288   0.307E-01    0.578E-02
DAV:  16    -0.163460252959E+03   -0.10842E-04   -0.22237E-04  1288   0.889E-02    0.347E-02
DAV:  17    -0.163460248013E+03    0.49455E-05   -0.25094E-05   680   0.435E-02
   9 F= -.16346025E+03 E0= -.16338819E+03  d E =-.209795E+01
 curvature:  -1.10 expect dE=-0.245E+01 dE for cont linesearch -0.253E-02
 trial: gam= 1.06708 g(F)=  0.132E+01 g(S)=  0.908E+00 ort =-0.854E-01 (trialstep = 0.719E+00)
 search vector abs. value=  0.565E+01
 bond charge predicted
       N       E                     dE             d eps       ncg     rms          rms(c)
DAV:   1    -0.165351820988E+03   -0.18916E+01   -0.17506E+02   824   0.527E+01    0.136E+01
DAV:   2    -0.186824393747E+03   -0.21473E+02   -0.17210E+02  1520   0.113E+02    0.478E+01
DAV:   3    -0.164923309091E+03    0.21901E+02   -0.92841E+01  1576   0.688E+01    0.132E+01
DAV:   4    -0.165285509215E+03   -0.36220E+00   -0.19109E+01  1584   0.288E+01    0.943E+00
DAV:   5    -0.165037434228E+03    0.24807E+00   -0.59085E+00  1560   0.199E+01    0.642E+00
DAV:   6    -0.164889832684E+03    0.14760E+00   -0.26396E+00  1584   0.128E+01    0.557E+00
DAV:   7    -0.164784362378E+03    0.10547E+00   -0.16155E+00  1616   0.851E+00    0.328E+00
DAV:   8    -0.164758785685E+03    0.25577E-01   -0.63185E-01  1576   0.561E+00    0.322E+00
DAV:   9    -0.164735445767E+03    0.23340E-01   -0.12536E-01  1496   0.277E+00    0.221E+00
DAV:  10    -0.164721326417E+03    0.14119E-01   -0.74349E-02  1336   0.186E+00    0.184E+00
DAV:  11    -0.164711034724E+03    0.10292E-01   -0.36756E-02  1616   0.125E+00    0.102E+00
DAV:  12    -0.164708673510E+03    0.23612E-02   -0.16884E-02  1424   0.801E-01    0.690E-01
DAV:  13    -0.164708084332E+03    0.58918E-03   -0.63015E-03  1616   0.565E-01    0.545E-01
DAV:  14    -0.164707106756E+03    0.97758E-03   -0.40282E-03  1480   0.415E-01    0.329E-01
DAV:  15    -0.164706720010E+03    0.38675E-03   -0.13986E-03  1608   0.245E-01    0.110E-01
DAV:  16    -0.164706706862E+03    0.13149E-04   -0.18651E-04  1272   0.885E-02    0.813E-02
DAV:  17    -0.164706688098E+03    0.18764E-04   -0.23816E-05   680   0.434E-02    0.577E-02
DAV:  18    -0.164706683240E+03    0.48582E-05   -0.49529E-05   912   0.236E-02
  10 F= -.16470668E+03 E0= -.16463973E+03  d E =-.124644E+01
 trial-energy change:   -1.246435  1 .order   -1.222184   -1.535475   -0.908892
 step:   1.4317(harm=  1.7615)  dis= 0.26651  next Energy=  -165.181063 (dE=-0.172E+01)
 bond charge predicted
       N       E                     dE             d eps       ncg     rms          rms(c)
DAV:   1    -0.165903656669E+03   -0.11970E+01   -0.17280E+02   816   0.528E+01    0.142E+01
DAV:   2    -0.189257000560E+03   -0.23353E+02   -0.17962E+02  1472   0.121E+02    0.485E+01
DAV:   3    -0.165503084157E+03    0.23754E+02   -0.94584E+01  1552   0.752E+01    0.135E+01
DAV:   4    -0.165755639857E+03   -0.25256E+00   -0.21275E+01  1544   0.293E+01    0.893E+00
DAV:   5    -0.165546187201E+03    0.20945E+00   -0.58291E+00  1584   0.202E+01    0.654E+00
DAV:   6    -0.165375127670E+03    0.17106E+00   -0.26731E+00  1592   0.134E+01    0.523E+00
DAV:   7    -0.165294640635E+03    0.80487E-01   -0.14732E+00  1624   0.930E+00    0.339E+00
DAV:   8    -0.165250987684E+03    0.43653E-01   -0.71868E-01  1448   0.576E+00    0.284E+00
DAV:   9    -0.165227345131E+03    0.23643E-01   -0.11438E-01  1448   0.260E+00    0.192E+00
DAV:  10    -0.165216714068E+03    0.10631E-01   -0.74070E-02  1368   0.178E+00    0.145E+00
DAV:  11    -0.165212237092E+03    0.44770E-02   -0.39719E-02  1576   0.139E+00    0.108E+00
DAV:  12    -0.165207439663E+03    0.47974E-02   -0.18116E-02  1520   0.909E-01    0.520E-01
DAV:  13    -0.165207439242E+03    0.42101E-06   -0.36819E-03  1432   0.430E-01    0.436E-01
DAV:  14    -0.165206870453E+03    0.56879E-03   -0.28358E-03  1336   0.373E-01    0.304E-01
DAV:  15    -0.165206675045E+03    0.19541E-03   -0.99779E-04  1544   0.216E-01    0.202E-01
DAV:  16    -0.165206530351E+03    0.14469E-03   -0.56677E-04  1488   0.156E-01    0.117E-01
DAV:  17    -0.165206476401E+03    0.53950E-04   -0.17115E-04  1496   0.905E-02    0.451E-02
DAV:  18    -0.165206468085E+03    0.83163E-05   -0.31516E-05   792   0.383E-02
  11 F= -.16520647E+03 E0= -.16514314E+03  d E =-.174622E+01
 curvature:  -2.10 expect dE=-0.461E+01 dE for cont linesearch -0.384E-02
 trial: gam= 0.73200 g(F)=  0.169E+01 g(S)=  0.509E+00 ort = 0.102E+00 (trialstep = 0.861E+00)
 search vector abs. value=  0.538E+01
 bond charge predicted
       N       E                     dE             d eps       ncg     rms          rms(c)
DAV:   1    -0.166403016397E+03   -0.11965E+01   -0.23881E+02   840   0.617E+01    0.967E+00
DAV:   2    -0.187859560240E+03   -0.21457E+02   -0.16710E+02  1584   0.913E+01    0.525E+01
DAV:   3    -0.166268617526E+03    0.21591E+02   -0.11734E+02  1552   0.788E+01    0.121E+01
DAV:   4    -0.166803065609E+03   -0.53445E+00   -0.22533E+01  1600   0.272E+01    0.741E+00
DAV:   5    -0.166606184681E+03    0.19688E+00   -0.37055E+00  1464   0.124E+01    0.417E+00
DAV:   6    -0.166520080729E+03    0.86104E-01   -0.16071E+00  1288   0.805E+00    0.297E+00
DAV:   7    -0.166599310436E+03   -0.79230E-01   -0.11025E+00  1408   0.703E+00    0.419E+00
DAV:   8    -0.166463158335E+03    0.13615E+00   -0.10775E+00  1464   0.668E+00    0.205E+00
DAV:   9    -0.166451459323E+03    0.11699E-01   -0.23522E-01  1512   0.330E+00    0.140E+00
DAV:  10    -0.166443095959E+03    0.83634E-02   -0.71679E-02  1584   0.213E+00    0.915E-01
DAV:  11    -0.166442015131E+03    0.10808E-02   -0.17162E-02  1600   0.107E+00    0.812E-01
DAV:  12    -0.166438493519E+03    0.35216E-02   -0.24639E-02  1488   0.109E+00    0.400E-01
DAV:  13    -0.166437597100E+03    0.89642E-03   -0.10044E-02  1336   0.651E-01    0.257E-01
DAV:  14    -0.166437405347E+03    0.19175E-03   -0.24359E-03  1608   0.360E-01    0.151E-01
DAV:  15    -0.166437298005E+03    0.10734E-03   -0.83555E-04  1344   0.202E-01    0.954E-02
DAV:  16    -0.166437282070E+03    0.15936E-04   -0.20355E-04  1304   0.933E-02    0.246E-02
DAV:  17    -0.166437280327E+03    0.17425E-05   -0.16195E-05   672   0.334E-02
  12 F= -.16643728E+03 E0= -.16635573E+03  d E =-.123081E+01
 trial-energy change:   -1.230812  1 .order   -1.274324   -1.958484   -0.590164
 step:   1.3999(harm=  1.2329)  dis= 0.37968  next Energy=  -166.611119 (dE=-0.140E+01)
 bond charge predicted
       N       E                     dE             d eps       ncg     rms          rms(c)
DAV:   1    -0.166590045384E+03   -0.15276E+00   -0.90979E+01   816   0.354E+01    0.518E+00
DAV:   2    -0.172927907243E+03   -0.63379E+01   -0.46190E+01  1560   0.498E+01    0.295E+01
DAV:   3    -0.166829909037E+03    0.60980E+01   -0.38695E+01  1600   0.426E+01    0.843E+00
DAV:   4    -0.166702252653E+03    0.12766E+00   -0.50651E+00  1600   0.139E+01    0.337E+00
DAV:   5    -0.166678583383E+03    0.23669E-01   -0.11664E+00  1400   0.657E+00    0.243E+00
DAV:   6    -0.166623013293E+03    0.55570E-01   -0.41077E-01  1456   0.451E+00    0.118E+00
DAV:   7    -0.166648030760E+03   -0.25017E-01   -0.29344E-01  1616   0.411E+00    0.199E+00
DAV:   8    -0.166612059645E+03    0.35971E-01   -0.23211E-01  1608   0.360E+00    0.670E-01
DAV:   9    -0.166608623567E+03    0.34361E-02   -0.52631E-02  1312   0.145E+00    0.386E-01
DAV:  10    -0.166608101613E+03    0.52195E-03   -0.10127E-02  1592   0.749E-01    0.243E-01
DAV:  11    -0.166607725298E+03    0.37632E-03   -0.53742E-03  1552   0.533E-01    0.163E-01
DAV:  12    -0.166607838224E+03   -0.11293E-03   -0.29061E-03  1336   0.329E-01    0.202E-01
DAV:  13    -0.166607502745E+03    0.33548E-03   -0.17944E-03  1584   0.308E-01    0.363E-02
DAV:  14    -0.166607534992E+03   -0.32246E-04   -0.35434E-04  1320   0.120E-01    0.598E-02
DAV:  15    -0.166607505639E+03    0.29352E-04   -0.16609E-04  1288   0.892E-02    0.119E-02
DAV:  16    -0.166607505959E+03   -0.31989E-06   -0.94388E-06   624   0.301E-02
  13 F= -.16660751E+03 E0= -.16652521E+03  d E =-.140104E+01
 curvature:  -1.16 expect dE=-0.641E+00 dE for cont linesearch -0.506E-03
 trial: gam= 0.23453 g(F)=  0.352E+00 g(S)=  0.199E+00 ort =-0.483E-01 (trialstep = 0.969E+00)
 search vector abs. value=  0.824E+00
 bond charge predicted
       N       E                     dE             d eps       ncg     rms          rms(c)
DAV:   1    -0.167449622487E+03   -0.84212E+00   -0.47868E+01   840   0.335E+01    0.930E+00
DAV:   2    -0.181021830881E+03   -0.13572E+02   -0.81216E+01  1616   0.850E+01    0.390E+01
DAV:   3    -0.166975470351E+03    0.14046E+02   -0.60480E+01  1608   0.606E+01    0.851E+00
DAV:   4    -0.167068266445E+03   -0.92796E-01   -0.10710E+01  1480   0.193E+01    0.446E+00
DAV:   5    -0.167189418100E+03   -0.12115E+00   -0.21605E+00  1544   0.119E+01    0.597E+00
DAV:   6    -0.166992545370E+03    0.19687E+00   -0.14161E+00  1520   0.994E+00    0.289E+00
DAV:   7    -0.166997405266E+03   -0.48599E-02   -0.49507E-01  1560   0.499E+00    0.223E+00
DAV:   8    -0.166957107884E+03    0.40297E-01   -0.27860E-01  1388   0.346E+00    0.123E+00
DAV:   9    -0.166956263252E+03    0.84463E-03   -0.52733E-02  1312   0.150E+00    0.110E+00
DAV:  10    -0.166950987089E+03    0.52762E-02   -0.20794E-02  1576   0.943E-01    0.610E-01
DAV:  11    -0.166951483241E+03   -0.49615E-03   -0.16373E-02  1392   0.845E-01    0.524E-01
DAV:  12    -0.166949544593E+03    0.19386E-02   -0.11502E-02  1504   0.763E-01    0.193E-01
DAV:  13    -0.166949677437E+03   -0.13284E-03   -0.23428E-03  1376   0.310E-01    0.206E-01
DAV:  14    -0.166949501128E+03    0.17631E-03   -0.83293E-04  1392   0.207E-01    0.109E-01
DAV:  15    -0.166949498490E+03    0.26378E-05   -0.32368E-04  1336   0.116E-01    0.940E-02
DAV:  16    -0.166949445899E+03    0.52591E-04   -0.21324E-04  1536   0.102E-01    0.222E-02
DAV:  17    -0.166949441312E+03    0.45864E-05   -0.18169E-05   688   0.381E-02
  14 F= -.16694944E+03 E0= -.16686968E+03  d E =-.341935E+00
 trial-energy change:   -0.341935  1 .order   -0.336045   -0.522934   -0.149157
 step:   1.3119(harm=  1.3558)  dis= 0.10438  next Energy=  -166.976086 (dE=-0.369E+00)
 bond charge predicted
       N       E                     dE             d eps       ncg     rms          rms(c)
DAV:   1    -0.167039185171E+03   -0.89739E-01   -0.62137E+00   888   0.125E+01    0.333E+00
DAV:   2    -0.169204583650E+03   -0.21654E+01   -0.13854E+01  1600   0.307E+01    0.170E+01
DAV:   3    -0.167002702179E+03    0.22019E+01   -0.93755E+00  1632   0.261E+01    0.316E+00
DAV:   4    -0.166985110996E+03    0.17591E-01   -0.10438E+00  1480   0.773E+00    0.124E+00
DAV:   5    -0.166992817431E+03   -0.77064E-02   -0.19840E-01  1400   0.351E+00    0.159E+00
DAV:   6    -0.166978545639E+03    0.14272E-01   -0.81615E-02  1448   0.205E+00    0.597E-01
DAV:   7    -0.166978809334E+03   -0.26370E-03   -0.34403E-02  1608   0.121E+00    0.606E-01
DAV:   8    -0.166976118469E+03    0.26909E-02   -0.15211E-02  1492   0.815E-01    0.179E-01
DAV:   9    -0.166976367035E+03   -0.24857E-03   -0.49639E-03  1336   0.435E-01    0.219E-01
DAV:  10    -0.166975912103E+03    0.45493E-03   -0.30553E-03  1432   0.368E-01    0.553E-02
DAV:  11    -0.166975931411E+03   -0.19308E-04   -0.40884E-04  1320   0.133E-01    0.541E-02
DAV:  12    -0.166975909081E+03    0.22330E-04   -0.16683E-04  1376   0.985E-02    0.276E-02
DAV:  13    -0.166975908059E+03    0.10223E-05   -0.40737E-05   872   0.554E-02
  15 F= -.16697591E+03 E0= -.16689791E+03  d E =-.368402E+00
 curvature:  -1.02 expect dE=-0.454E+00 dE for cont linesearch -0.145E-05
 trial: gam= 0.77172 g(F)=  0.154E+00 g(S)=  0.291E+00 ort =-0.108E-02 (trialstep = 0.916E+00)
 search vector abs. value=  0.934E+00
 bond charge predicted
       N       E                     dE             d eps       ncg     rms          rms(c)
DAV:   1    -0.167577795005E+03   -0.60189E+00   -0.48474E+01   924   0.320E+01    0.802E+00
DAV:   2    -0.180191427660E+03   -0.12614E+02   -0.99621E+01  1456   0.736E+01    0.397E+01
DAV:   3    -0.167143677590E+03    0.13048E+02   -0.48551E+01  1568   0.449E+01    0.523E+00
DAV:   4    -0.167288377099E+03   -0.14470E+00   -0.58366E+00  1360   0.152E+01    0.339E+00
DAV:   5    -0.167264355911E+03    0.24021E-01   -0.11921E+00  1536   0.830E+00    0.288E+00
DAV:   6    -0.167225745685E+03    0.38610E-01   -0.65602E-01  1592   0.574E+00    0.173E+00
DAV:   7    -0.167230902096E+03   -0.51564E-02   -0.32453E-01  1308   0.375E+00    0.199E+00
DAV:   8    -0.167194659943E+03    0.36242E-01   -0.20272E-01  1624   0.334E+00    0.630E-01
DAV:   9    -0.167197426560E+03   -0.27666E-02   -0.61142E-02  1296   0.176E+00    0.765E-01
DAV:  10    -0.167192634478E+03    0.47921E-02   -0.27603E-02  1352   0.112E+00    0.262E-01
DAV:  11    -0.167192841448E+03   -0.20697E-03   -0.58299E-03  1560   0.574E-01    0.286E-01
DAV:  12    -0.167192283382E+03    0.55807E-03   -0.38884E-03  1544   0.508E-01    0.867E-02
DAV:  13    -0.167192363091E+03   -0.79709E-04   -0.13027E-03  1384   0.238E-01    0.106E-01
DAV:  14    -0.167192247658E+03    0.11543E-03   -0.65776E-04  1432   0.195E-01    0.321E-02
DAV:  15    -0.167192248667E+03   -0.10088E-05   -0.81524E-05  1176   0.673E-02
  16 F= -.16719225E+03 E0= -.16712253E+03  d E =-.216341E+00
 trial-energy change:   -0.216341  1 .order   -0.214528   -0.406473   -0.022583
 step:   0.9680(harm=  0.9696)  dis= 0.05631  next Energy=  -167.192894 (dE=-0.217E+00)
 bond charge predicted
       N       E                     dE             d eps       ncg     rms          rms(c)
DAV:   1    -0.167194129987E+03   -0.18823E-02   -0.15162E-01   848   0.170E+00    0.468E-01
DAV:   2    -0.167252079715E+03   -0.57950E-01   -0.37815E-01  1608   0.439E+00    0.331E+00
DAV:   3    -0.167195111907E+03    0.56968E-01   -0.28453E-01  1608   0.365E+00    0.562E-01
DAV:   4    -0.167193127227E+03    0.19847E-02   -0.23098E-02  1384   0.107E+00    0.118E-01
DAV:   5    -0.167193187421E+03   -0.60194E-04   -0.32218E-03  1248   0.393E-01    0.138E-01
DAV:   6    -0.167193019272E+03    0.16815E-03   -0.15533E-03  1448   0.274E-01    0.567E-02
DAV:   7    -0.167193078454E+03   -0.59182E-04   -0.78329E-04  1344   0.185E-01    0.100E-01
DAV:   8    -0.167192984731E+03    0.93723E-04   -0.50464E-04  1416   0.151E-01    0.249E-02
DAV:   9    -0.167192995836E+03   -0.11106E-04   -0.15200E-04  1464   0.965E-02    0.412E-02
DAV:  10    -0.167192979963E+03    0.15873E-04   -0.73176E-05  1200   0.764E-02    0.115E-02
DAV:  11    -0.167192979257E+03    0.70683E-06   -0.90077E-06   504   0.256E-02
  17 F= -.16719298E+03 E0= -.16712356E+03  d E =-.217071E+00
 curvature:  -1.02 expect dE=-0.114E+00 dE for cont linesearch -0.489E-05
 trial: gam= 0.13578 g(F)=  0.106E+00 g(S)=  0.563E-02 ort = 0.212E-02 (trialstep = 0.926E+00)
 search vector abs. value=  0.129E+00
 bond charge predicted
       N       E                     dE             d eps       ncg     rms          rms(c)
DAV:   1    -0.167268646150E+03   -0.75666E-01   -0.99251E+00   816   0.112E+01    0.113E+00
DAV:   2    -0.167533934830E+03   -0.26529E+00   -0.20386E+00  1608   0.973E+00    0.635E+00
DAV:   3    -0.167294150145E+03    0.23978E+00   -0.12782E+00  1608   0.804E+00    0.158E+00
DAV:   4    -0.167283531430E+03    0.10619E-01   -0.16460E-01  1592   0.281E+00    0.702E-01
DAV:   5    -0.167284577255E+03   -0.10458E-02   -0.58974E-02  1592   0.180E+00    0.805E-01
DAV:   6    -0.167278373801E+03    0.62035E-02   -0.48620E-02  1504   0.152E+00    0.324E-01
DAV:   7    -0.167280320368E+03   -0.19466E-02   -0.28545E-02  1504   0.111E+00    0.551E-01
DAV:   8    -0.167277389628E+03    0.29307E-02   -0.15629E-02  1520   0.904E-01    0.799E-02
DAV:   9    -0.167277474888E+03   -0.85261E-04   -0.20152E-03  1312   0.308E-01    0.108E-01
DAV:  10    -0.167277398739E+03    0.76150E-04   -0.70743E-04  1320   0.196E-01    0.568E-02
DAV:  11    -0.167277382245E+03    0.16494E-04   -0.21543E-04  1544   0.108E-01    0.355E-02
DAV:  12    -0.167277378509E+03    0.37360E-05   -0.66209E-05   976   0.688E-02
  18 F= -.16727738E+03 E0= -.16720955E+03  d E =-.843993E-01
 trial-energy change:   -0.084399  1 .order   -0.084352   -0.103620   -0.065085
 step:   2.4904(harm=  2.4904)  dis= 0.04776  next Energy=  -167.332295 (dE=-0.139E+00)
 bond charge predicted
       N       E                     dE             d eps       ncg     rms          rms(c)
DAV:   1    -0.167306135147E+03   -0.28753E-01   -0.28296E+01   816   0.191E+01    0.192E+00
DAV:   2    -0.168042371757E+03   -0.73624E+00   -0.58587E+00  1608   0.164E+01    0.102E+01
DAV:   3    -0.167370907192E+03    0.67146E+00   -0.36058E+00  1608   0.135E+01    0.251E+00
DAV:   4    -0.167347108644E+03    0.23799E-01   -0.45027E-01  1584   0.470E+00    0.124E+00
DAV:   5    -0.167349698167E+03   -0.25895E-02   -0.16916E-01  1580   0.306E+00    0.131E+00
DAV:   6    -0.167332321806E+03    0.17376E-01   -0.14011E-01  1520   0.258E+00    0.535E-01
DAV:   7    -0.167338120181E+03   -0.57984E-02   -0.80420E-02  1408   0.180E+00    0.933E-01
DAV:   8    -0.167329617108E+03    0.85031E-02   -0.43486E-02  1480   0.148E+00    0.133E-01
DAV:   9    -0.167329900875E+03   -0.28377E-03   -0.58753E-03  1336   0.558E-01    0.186E-01
DAV:  10    -0.167329627811E+03    0.27306E-03   -0.18747E-03  1384   0.334E-01    0.748E-02
DAV:  11    -0.167329619865E+03    0.79453E-05   -0.55216E-04  1608   0.177E-01    0.635E-02
DAV:  12    -0.167329592332E+03    0.27533E-04   -0.18471E-04  1552   0.118E-01    0.184E-02
DAV:  13    -0.167329601316E+03   -0.89834E-05   -0.88646E-05  1176   0.639E-02
  19 F= -.16732960E+03 E0= -.16726080E+03  d E =-.136622E+00
 curvature:  -1.44 expect dE=-0.737E-01 dE for cont linesearch -0.160E-03
 trial: gam= 0.49423 g(F)=  0.331E-01 g(S)=  0.181E-01 ort =-0.379E-02 (trialstep = 0.124E+01)
 search vector abs. value=  0.790E-01
 bond charge predicted
       N       E                     dE             d eps       ncg     rms          rms(c)
DAV:   1    -0.167475079780E+03   -0.14549E+00   -0.10159E+01   856   0.149E+01    0.443E+00
DAV:   2    -0.171928626150E+03   -0.44535E+01   -0.29504E+01  1616   0.442E+01    0.230E+01
DAV:   3    -0.167297695661E+03    0.46309E+01   -0.20591E+01  1616   0.360E+01    0.344E+00
DAV:   4    -0.167394674890E+03   -0.96979E-01   -0.22992E+00  1400   0.886E+00    0.171E+00
DAV:   5    -0.167409335819E+03   -0.14661E-01   -0.39637E-01  1560   0.453E+00    0.207E+00
DAV:   6    -0.167385113856E+03    0.24222E-01   -0.24382E-01  1576   0.395E+00    0.133E+00
DAV:   7    -0.167380617754E+03    0.44961E-02   -0.82922E-02  1600   0.200E+00    0.688E-01
DAV:   8    -0.167376663427E+03    0.39543E-02   -0.34695E-02  1488   0.125E+00    0.377E-01
DAV:   9    -0.167376851400E+03   -0.18797E-03   -0.96076E-03  1504   0.697E-01    0.388E-01
DAV:  10    -0.167375843687E+03    0.10077E-02   -0.51695E-03  1600   0.529E-01    0.144E-01
DAV:  11    -0.167376057756E+03   -0.21407E-03   -0.27711E-03  1384   0.357E-01    0.174E-01
DAV:  12    -0.167375778158E+03    0.27960E-03   -0.17091E-03  1344   0.283E-01    0.361E-02
DAV:  13    -0.167375816973E+03   -0.38816E-04   -0.32642E-04  1496   0.116E-01    0.730E-02
DAV:  14    -0.167375784922E+03    0.32052E-04   -0.15787E-04  1292   0.929E-02    0.289E-02
DAV:  15    -0.167375779294E+03    0.56280E-05   -0.27315E-05   728   0.416E-02
  20 F= -.16737578E+03 E0= -.16730475E+03  d E =-.461780E-01
 trial-energy change:   -0.046178  1 .order   -0.045789   -0.061096   -0.030482
 step:   2.3187(harm=  2.4727)  dis= 0.02628  next Energy=  -167.389318 (dE=-0.597E-01)
 bond charge predicted
       N       E                     dE             d eps       ncg     rms          rms(c)
DAV:   1    -0.167467015713E+03   -0.91231E-01   -0.77590E+00   864   0.132E+01    0.387E+00
DAV:   2    -0.170896586311E+03   -0.34296E+01   -0.22492E+01  1616   0.386E+01    0.204E+01
DAV:   3    -0.167331764202E+03    0.35648E+01   -0.15743E+01  1616   0.320E+01    0.287E+00
DAV:   4    -0.167405387217E+03   -0.73623E-01   -0.16930E+00  1368   0.787E+00    0.147E+00
DAV:   5    -0.167415446240E+03   -0.10059E-01   -0.29737E-01  1536   0.385E+00    0.176E+00
DAV:   6    -0.167398349911E+03    0.17096E-01   -0.18457E-01  1576   0.346E+00    0.117E+00
DAV:   7    -0.167394390166E+03    0.39597E-02   -0.62355E-02  1592   0.179E+00    0.586E-01
DAV:   8    -0.167391558495E+03    0.28317E-02   -0.26671E-02  1432   0.109E+00    0.317E-01
DAV:   9    -0.167391829118E+03   -0.27062E-03   -0.76790E-03  1456   0.624E-01    0.348E-01
DAV:  10    -0.167390972329E+03    0.85679E-03   -0.43891E-03  1576   0.474E-01    0.110E-01
DAV:  11    -0.167391110981E+03   -0.13865E-03   -0.19126E-03  1360   0.295E-01    0.139E-01
DAV:  12    -0.167390931770E+03    0.17921E-03   -0.10622E-03  1376   0.229E-01    0.280E-02
DAV:  13    -0.167390957297E+03   -0.25527E-04   -0.19951E-04  1416   0.932E-02    0.576E-02
DAV:  14    -0.167390936178E+03    0.21119E-04   -0.10059E-04  1232   0.748E-02    0.226E-02
DAV:  15    -0.167390931179E+03    0.49986E-05   -0.12868E-05   568   0.326E-02
  21 F= -.16739093E+03 E0= -.16731826E+03  d E =-.613299E-01
 curvature:  -1.95 expect dE=-0.377E+00 dE for cont linesearch -0.104E-03
 trial: gam= 3.60385 g(F)=  0.660E-01 g(S)=  0.127E+00 ort = 0.206E-02 (trialstep = 0.931E-01)
 search vector abs. value=  0.123E+01
 bond charge predicted
       N       E                     dE             d eps       ncg     rms          rms(c)
DAV:   1    -0.167412327295E+03   -0.21391E-01   -0.74947E-01   816   0.323E+00    0.561E-01
DAV:   2    -0.167511167248E+03   -0.98840E-01   -0.60343E-01  1584   0.561E+00    0.328E+00
DAV:   3    -0.167412292750E+03    0.98874E-01   -0.46603E-01  1600   0.504E+00    0.717E-01
DAV:   4    -0.167410310496E+03    0.19823E-02   -0.29548E-02  1512   0.133E+00    0.253E-01
DAV:   5    -0.167410280183E+03    0.30313E-04   -0.80547E-03  1552   0.744E-01    0.284E-01
DAV:   6    -0.167409569507E+03    0.71068E-03   -0.57596E-03  1544   0.609E-01    0.887E-02
DAV:   7    -0.167409720373E+03   -0.15087E-03   -0.19618E-03  1396   0.292E-01    0.154E-01
DAV:   8    -0.167409504769E+03    0.21560E-03   -0.10989E-03  1584   0.238E-01    0.335E-02
DAV:   9    -0.167409514605E+03   -0.98362E-05   -0.21981E-04  1320   0.984E-02    0.382E-02
DAV:  10    -0.167409503741E+03    0.10864E-04   -0.74402E-05  1072   0.665E-02    0.194E-02
DAV:  11    -0.167409501375E+03    0.23655E-05   -0.13664E-05   552   0.377E-02
  22 F= -.16740950E+03 E0= -.16733581E+03  d E =-.185702E-01
 ZBRENT: can't locate minimum, use default step
 trial-energy change:   -0.018570  1 .order   -0.018617   -0.018698   -0.018536
 step:   0.3726(harm= 10.7390)  dis= 0.02160  next Energy=  -168.468876 (dE=-0.108E+01)
 bond charge predicted
       N       E                     dE             d eps       ncg     rms          rms(c)
DAV:   1    -0.167488653269E+03   -0.79150E-01   -0.67425E+00   816   0.966E+00    0.169E+00
DAV:   2    -0.168348522527E+03   -0.85987E+00   -0.56437E+00  1584   0.168E+01    0.932E+00
DAV:   3    -0.167471560397E+03    0.87696E+00   -0.38874E+00  1600   0.149E+01    0.156E+00
DAV:   4    -0.167473160907E+03   -0.16005E-02   -0.25351E-01  1464   0.384E+00    0.101E+00
DAV:   5    -0.167470685078E+03    0.24758E-02   -0.87714E-02  1544   0.234E+00    0.850E-01
DAV:   6    -0.167464060995E+03    0.66241E-02   -0.50403E-02  1344   0.155E+00    0.293E-01
DAV:   7    -0.167464731064E+03   -0.67007E-03   -0.14597E-02  1608   0.867E-01    0.362E-01
DAV:   8    -0.167463643603E+03    0.10875E-02   -0.75783E-03  1552   0.614E-01    0.126E-01
DAV:   9    -0.167463766668E+03   -0.12306E-03   -0.21850E-03  1472   0.294E-01    0.145E-01
DAV:  10    -0.167463582751E+03    0.18392E-03   -0.10799E-03  1360   0.219E-01    0.424E-02
DAV:  11    -0.167463601889E+03   -0.19139E-04   -0.24089E-04  1600   0.113E-01    0.547E-02
DAV:  12    -0.167463579673E+03    0.22216E-04   -0.14398E-04  1416   0.904E-02    0.134E-02
DAV:  13    -0.167463579818E+03   -0.14436E-06   -0.20563E-05   656   0.421E-02
  23 F= -.16746358E+03 E0= -.16738615E+03  d E =-.726486E-01
 curvature:  -1.71 expect dE=-0.338E+00 dE for cont linesearch -0.502E-01
 ZBRENT: increasing intervall
 opt :   0.9314  next Energy=  -167.565197 (dE=-0.174E+00)
 bond charge predicted
       N       E                     dE             d eps       ncg     rms          rms(c)
DAV:   1    -0.167656567976E+03   -0.19299E+00   -0.26962E+01   816   0.193E+01    0.333E+00
DAV:   2    -0.170661276394E+03   -0.30047E+01   -0.21742E+01  1584   0.325E+01    0.171E+01
DAV:   3    -0.167571293498E+03    0.30900E+01   -0.13831E+01  1608   0.289E+01    0.270E+00
DAV:   4    -0.167601503506E+03   -0.30210E-01   -0.12372E+00  1400   0.753E+00    0.203E+00
DAV:   5    -0.167605146615E+03   -0.36431E-02   -0.47579E-01  1584   0.493E+00    0.230E+00
DAV:   6    -0.167566973243E+03    0.38173E-01   -0.24038E-01  1496   0.325E+00    0.559E-01
DAV:   7    -0.167571853284E+03   -0.48800E-02   -0.72274E-02  1360   0.180E+00    0.866E-01
DAV:   8    -0.167565249582E+03    0.66037E-02   -0.48293E-02  1576   0.155E+00    0.380E-01
DAV:   9    -0.167565315614E+03   -0.66031E-04   -0.97752E-03  1552   0.751E-01    0.302E-01
DAV:  10    -0.167564576652E+03    0.73896E-03   -0.49216E-03  1552   0.489E-01    0.102E-01
DAV:  11    -0.167564615347E+03   -0.38695E-04   -0.14873E-03  1520   0.249E-01    0.110E-01
DAV:  12    -0.167564551447E+03    0.63900E-04   -0.56781E-04  1616   0.184E-01    0.451E-02
DAV:  13    -0.167564539742E+03    0.11705E-04   -0.20774E-04  1560   0.106E-01    0.282E-02
DAV:  14    -0.167564533440E+03    0.63018E-05   -0.19528E-05   600   0.491E-02
  24 F= -.16756453E+03 E0= -.16747994E+03  d E =-.173602E+00
 curvature:  -3.46 expect dE=-0.905E+00 dE for cont linesearch -0.886E-01
 ZBRENT: increasing intervall
 opt :   2.0490  next Energy=  -167.749115 (dE=-0.358E+00)
 bond charge predicted
       N       E                     dE             d eps       ncg     rms          rms(c)
DAV:   1    -0.168091602553E+03   -0.52706E+00   -0.10915E+02   816   0.391E+01    0.668E+00
DAV:   2    -0.178591963107E+03   -0.10500E+02   -0.82485E+01  1584   0.640E+01    0.318E+01
DAV:   3    -0.167763895133E+03    0.10828E+02   -0.53047E+01  1624   0.568E+01    0.596E+00
DAV:   4    -0.167831491021E+03   -0.67596E-01   -0.62875E+00  1376   0.147E+01    0.328E+00
DAV:   5    -0.167988697374E+03   -0.15721E+00   -0.21810E+00  1576   0.104E+01    0.575E+00
DAV:   6    -0.167768511556E+03    0.22019E+00   -0.17793E+00  1568   0.102E+01    0.224E+00
DAV:   7    -0.167800461721E+03   -0.31950E-01   -0.62626E-01  1592   0.528E+00    0.248E+00
DAV:   8    -0.167744263965E+03    0.56198E-01   -0.32358E-01  1600   0.397E+00    0.589E-01
DAV:   9    -0.167743242912E+03    0.10211E-02   -0.34444E-02  1384   0.131E+00    0.439E-01
DAV:  10    -0.167742930480E+03    0.31243E-03   -0.11446E-02  1592   0.719E-01    0.356E-01
DAV:  11    -0.167742203877E+03    0.72660E-03   -0.83311E-03  1592   0.715E-01    0.170E-01
DAV:  12    -0.167742189983E+03    0.13895E-04   -0.15730E-03  1568   0.302E-01    0.932E-02
DAV:  13    -0.167742119328E+03    0.70654E-04   -0.81534E-04  1352   0.179E-01    0.367E-02
DAV:  14    -0.167742121470E+03   -0.21417E-05   -0.14003E-04  1200   0.759E-02    0.281E-02
DAV:  15    -0.167742116252E+03    0.52179E-05   -0.76200E-05  1040   0.675E-02
  25 F= -.16774212E+03 E0= -.16765969E+03  d E =-.351185E+00
 curvature:  -7.21 expect dE=-0.268E+01 dE for cont linesearch -0.966E-01
 ZBRENT: increasing intervall
 opt :   4.2844  next Energy=  -167.919667 (dE=-0.529E+00)
 bond charge predicted
       N       E                     dE             d eps       ncg     rms          rms(c)
DAV:   1    -0.168777863240E+03   -0.10357E+01   -0.45333E+02   824   0.849E+01    0.143E+01
DAV:   2    -0.206424587725E+03   -0.37647E+02   -0.32344E+02  1608   0.131E+02    0.597E+01
DAV:   3    -0.170634359855E+03    0.35790E+02   -0.20277E+02  1512   0.102E+02    0.215E+01
DAV:   4    -0.167560554368E+03    0.30738E+01   -0.26943E+01  1552   0.388E+01    0.677E+00
DAV:   5    -0.167905458725E+03   -0.34490E+00   -0.82045E+00  1384   0.168E+01    0.697E+00
DAV:   6    -0.167614370429E+03    0.29109E+00   -0.43871E+00  1376   0.136E+01    0.365E+00
DAV:   7    -0.167774880424E+03   -0.16051E+00   -0.31620E+00  1456   0.103E+01    0.640E+00
DAV:   8    -0.167485832122E+03    0.28905E+00   -0.23538E+00  1608   0.103E+01    0.210E+00
DAV:   9    -0.167486786019E+03   -0.95390E-03   -0.41477E-01  1368   0.393E+00    0.230E+00
DAV:  10    -0.167456290387E+03    0.30496E-01   -0.13003E-01  1560   0.287E+00    0.754E-01
DAV:  11    -0.167455637958E+03    0.65243E-03   -0.32397E-02  1576   0.137E+00    0.682E-01
DAV:  12    -0.167453691625E+03    0.19463E-02   -0.15407E-02  1552   0.893E-01    0.255E-01
DAV:  13    -0.167454107820E+03   -0.41620E-03   -0.11333E-02  1616   0.751E-01    0.330E-01
DAV:  14    -0.167453443497E+03    0.66432E-03   -0.34888E-03  1600   0.458E-01    0.125E-01
DAV:  15    -0.167453420274E+03    0.23223E-04   -0.41068E-04  1464   0.150E-01    0.104E-01
DAV:  16    -0.167453360421E+03    0.59852E-04   -0.34505E-04  1536   0.131E-01    0.179E-02
DAV:  17    -0.167453361372E+03   -0.95120E-06   -0.18541E-05   720   0.357E-02
  26 F= -.16745336E+03 E0= -.16737600E+03  d E =-.624302E-01
 curvature: -13.25 expect dE=-0.145E+02 dE for cont linesearch -0.174E+01
 ZBRENT: bracketing found
 ZBRENT: interpolating
 opt :   2.5900  next Energy=  -167.776899 (dE=-0.386E+00)
 bond charge predicted
       N       E                     dE             d eps       ncg     rms          rms(c)
DAV:   1    -0.168377433941E+03   -0.92407E+00   -0.27328E+02   852   0.673E+01    0.858E+00
DAV:   2    -0.181110801535E+03   -0.12733E+02   -0.10466E+02  1568   0.770E+01    0.364E+01
DAV:   3    -0.168412774742E+03    0.12698E+02   -0.71526E+01  1608   0.656E+01    0.106E+01
DAV:   4    -0.168055587894E+03    0.35719E+00   -0.10897E+01  1616   0.237E+01    0.472E+00
DAV:   5    -0.168245118486E+03   -0.18953E+00   -0.40709E+00  1568   0.142E+01    0.702E+00
DAV:   6    -0.167798722841E+03    0.44640E+00   -0.29552E+00  1552   0.119E+01    0.180E+00
DAV:   7    -0.167939837283E+03   -0.14111E+00   -0.15855E+00  1424   0.764E+00    0.407E+00
DAV:   8    -0.167769167684E+03    0.17067E+00   -0.74450E-01  1584   0.578E+00    0.824E-01
DAV:   9    -0.167768227178E+03    0.94051E-03   -0.82731E-02  1344   0.187E+00    0.550E-01
DAV:  10    -0.167767359038E+03    0.86814E-03   -0.18591E-02  1592   0.103E+00    0.378E-01
DAV:  11    -0.167766540355E+03    0.81868E-03   -0.10961E-02  1592   0.800E-01    0.221E-01
DAV:  12    -0.167766275154E+03    0.26520E-03   -0.24416E-03  1528   0.395E-01    0.953E-02
DAV:  13    -0.167766325418E+03   -0.50264E-04   -0.12613E-03  1416   0.232E-01    0.103E-01
DAV:  14    -0.167766241810E+03    0.83608E-04   -0.66361E-04  1480   0.169E-01    0.484E-02
DAV:  15    -0.167766230206E+03    0.11603E-04   -0.10638E-04  1184   0.782E-02    0.226E-02
DAV:  16    -0.167766225146E+03    0.50603E-05   -0.35775E-05   780   0.518E-02
  27 F= -.16776623E+03 E0= -.16768455E+03  d E =-.375294E+00
 curvature:  -0.26 expect dE=-0.111E+00 dE for cont linesearch -0.305E-03
 trial: gam= 1.56447 g(F)=  0.393E+00 g(S)=  0.254E-01 ort = 0.377E-01 (trialstep = 0.206E+00)
 search vector abs. value=  0.356E+01
 bond charge predicted
       N       E                     dE             d eps       ncg     rms          rms(c)
DAV:   1    -0.167869010429E+03   -0.10278E+00   -0.10917E+01   816   0.124E+01    0.171E+00
DAV:   2    -0.168443243637E+03   -0.57423E+00   -0.50399E+00  1376   0.143E+01    0.737E+00
DAV:   3    -0.167861235923E+03    0.58201E+00   -0.32035E+00  1456   0.122E+01    0.142E+00
DAV:   4    -0.167862805108E+03   -0.15692E-02   -0.27703E-01  1432   0.361E+00    0.106E+00
DAV:   5    -0.167871798745E+03   -0.89936E-02   -0.16412E-01  1616   0.291E+00    0.173E+00
DAV:   6    -0.167853258631E+03    0.18540E-01   -0.12205E-01  1616   0.247E+00    0.400E-01
DAV:   7    -0.167854227222E+03   -0.96859E-03   -0.34638E-02  1528   0.131E+00    0.478E-01
DAV:   8    -0.167852527075E+03    0.17001E-02   -0.15174E-02  1536   0.856E-01    0.236E-01
DAV:   9    -0.167852087439E+03    0.43964E-03   -0.44894E-03  1368   0.460E-01    0.108E-01
DAV:  10    -0.167852148933E+03   -0.61495E-04   -0.14645E-03  1608   0.302E-01    0.130E-01
DAV:  11    -0.167852021225E+03    0.12771E-03   -0.93760E-04  1592   0.239E-01    0.350E-02
DAV:  12    -0.167852041189E+03   -0.19964E-04   -0.22420E-04  1344   0.932E-02    0.480E-02
DAV:  13    -0.167852018192E+03    0.22997E-04   -0.11509E-04  1112   0.786E-02    0.117E-02
DAV:  14    -0.167852018803E+03   -0.61044E-06   -0.17460E-05   524   0.305E-02
  28 F= -.16785202E+03 E0= -.16776874E+03  d E =-.857937E-01
 ZBRENT: can't locate minimum, use default step
 trial-energy change:   -0.085794  1 .order   -0.086218   -0.098197   -0.074239
 step:   0.8223(harm=  0.8426)  dis= 0.10256  next Energy=  -167.967469 (dE=-0.201E+00)
 bond charge predicted
       N       E                     dE             d eps       ncg     rms          rms(c)
DAV:   1    -0.168098109093E+03   -0.24609E+00   -0.99408E+01   816   0.385E+01    0.515E+00
DAV:   2    -0.173010409464E+03   -0.49123E+01   -0.44986E+01  1448   0.434E+01    0.224E+01
DAV:   3    -0.168213257186E+03    0.47972E+01   -0.29062E+01  1528   0.385E+01    0.597E+00
DAV:   4    -0.168020435150E+03    0.19282E+00   -0.32935E+00  1392   0.124E+01    0.224E+00
DAV:   5    -0.168149294140E+03   -0.12886E+00   -0.14836E+00  1608   0.860E+00    0.533E+00
DAV:   6    -0.167974935365E+03    0.17436E+00   -0.10662E+00  1616   0.744E+00    0.139E+00
DAV:   7    -0.167984417288E+03   -0.94819E-02   -0.33874E-01  1616   0.433E+00    0.158E+00
DAV:   8    -0.167969298295E+03    0.15119E-01   -0.15254E-01  1608   0.295E+00    0.867E-01
DAV:   9    -0.167962785362E+03    0.65129E-02   -0.50921E-02  1384   0.144E+00    0.263E-01
DAV:  10    -0.167963235506E+03   -0.45014E-03   -0.13336E-02  1616   0.797E-01    0.327E-01
DAV:  11    -0.167962438724E+03    0.79678E-03   -0.66609E-03  1552   0.599E-01    0.972E-02
DAV:  12    -0.167962601091E+03   -0.16237E-03   -0.23694E-03  1504   0.297E-01    0.158E-01
DAV:  13    -0.167962392736E+03    0.20836E-03   -0.10990E-03  1600   0.244E-01    0.302E-02
DAV:  14    -0.167962406057E+03   -0.13321E-04   -0.18778E-04  1360   0.896E-02    0.383E-02
DAV:  15    -0.167962395252E+03    0.10805E-04   -0.93227E-05  1232   0.766E-02    0.182E-02
DAV:  16    -0.167962393318E+03    0.19336E-05   -0.97117E-06   540   0.345E-02
  29 F= -.16796239E+03 E0= -.16788200E+03  d E =-.196168E+00
 curvature:  -3.14 expect dE=-0.182E+01 dE for cont linesearch -0.908E-04
 trial: gam= 0.50675 g(F)=  0.439E+00 g(S)=  0.140E+00 ort = 0.102E-01 (trialstep = 0.329E+00)
 search vector abs. value=  0.150E+01
 bond charge predicted
       N       E                     dE             d eps       ncg     rms          rms(c)
DAV:   1    -0.168149570932E+03   -0.18718E+00   -0.12551E+01   816   0.127E+01    0.179E+00
DAV:   2    -0.168785426881E+03   -0.63586E+00   -0.52978E+00  1616   0.171E+01    0.821E+00
DAV:   3    -0.168164352436E+03    0.62107E+00   -0.35481E+00  1608   0.139E+01    0.184E+00
DAV:   4    -0.168154843747E+03    0.95087E-02   -0.26300E-01  1432   0.379E+00    0.762E-01
DAV:   5    -0.168156540153E+03   -0.16964E-02   -0.80038E-02  1528   0.218E+00    0.865E-01
DAV:   6    -0.168150450211E+03    0.60899E-02   -0.63322E-02  1376   0.163E+00    0.429E-01
DAV:   7    -0.168152421936E+03   -0.19717E-02   -0.37021E-02  1592   0.129E+00    0.652E-01
DAV:   8    -0.168149249515E+03    0.31724E-02   -0.19581E-02  1592   0.988E-01    0.185E-01
DAV:   9    -0.168149039128E+03    0.21039E-03   -0.37780E-03  1432   0.420E-01    0.978E-02
DAV:  10    -0.168149039468E+03   -0.34053E-06   -0.13039E-03  1512   0.275E-01    0.112E-01
DAV:  11    -0.168148941558E+03    0.97911E-04   -0.62149E-04  1592   0.172E-01    0.304E-02
DAV:  12    -0.168148943519E+03   -0.19612E-05   -0.91208E-05  1136   0.685E-02
  30 F= -.16814894E+03 E0= -.16807073E+03  d E =-.186550E+00
 ZBRENT: can't locate minimum, use default step
 trial-energy change:   -0.186550  1 .order   -0.186752   -0.192125   -0.181380
 step:   1.3157(harm=  5.8812)  dis= 0.11233  next Energy=  -169.680043 (dE=-0.172E+01)
 bond charge predicted
       N       E                     dE             d eps       ncg     rms          rms(c)
DAV:   1    -0.168676822630E+03   -0.52788E+00   -0.11294E+02   816   0.374E+01    0.549E+00
DAV:   2    -0.174025617539E+03   -0.53488E+01   -0.47692E+01  1592   0.522E+01    0.232E+01
DAV:   3    -0.168822350575E+03    0.52033E+01   -0.30663E+01  1608   0.403E+01    0.560E+00
DAV:   4    -0.168690097406E+03    0.13225E+00   -0.28171E+00  1456   0.116E+01    0.241E+00
DAV:   5    -0.168695860745E+03   -0.57633E-02   -0.64248E-01  1576   0.624E+00    0.243E+00
DAV:   6    -0.168651979695E+03    0.43881E-01   -0.40005E-01  1472   0.411E+00    0.126E+00
DAV:   7    -0.168666296433E+03   -0.14317E-01   -0.38147E-01  1612   0.402E+00    0.186E+00
DAV:   8    -0.168638920489E+03    0.27376E-01   -0.16025E-01  1592   0.301E+00    0.577E-01
DAV:   9    -0.168637977959E+03    0.94253E-03   -0.31181E-02  1600   0.131E+00    0.417E-01
DAV:  10    -0.168638518761E+03   -0.54080E-03   -0.20134E-02  1592   0.102E+00    0.428E-01
DAV:  11    -0.168636704105E+03    0.18147E-02   -0.11113E-02  1432   0.726E-01    0.122E-01
DAV:  12    -0.168636722389E+03   -0.18284E-04   -0.14169E-03  1472   0.262E-01    0.842E-02
DAV:  13    -0.168636662585E+03    0.59805E-04   -0.54497E-04  1600   0.169E-01    0.414E-02
DAV:  14    -0.168636648774E+03    0.13810E-04   -0.91848E-05  1184   0.749E-02    0.142E-02
DAV:  15    -0.168636648169E+03    0.60585E-06   -0.19692E-05   648   0.395E-02
  31 F= -.16863665E+03 E0= -.16857476E+03  d E =-.674255E+00
 curvature:  -2.45 expect dE=-0.119E+01 dE for cont linesearch -0.269E+00
 ZBRENT: increasing intervall
 opt :   3.2891  next Energy=  -169.152466 (dE=-0.119E+01)
 bond charge predicted
       N       E                     dE             d eps       ncg     rms          rms(c)
DAV:   1    -0.168260060374E+03    0.37659E+00   -0.46154E+02   816   0.798E+01    0.112E+01
DAV:   2    -0.185722025823E+03   -0.17462E+02   -0.16080E+02  1608   0.102E+02    0.399E+01
DAV:   3    -0.169086507844E+03    0.16636E+02   -0.85460E+01  1544   0.689E+01    0.113E+01
DAV:   4    -0.168671871477E+03    0.41464E+00   -0.12281E+01  1384   0.231E+01    0.505E+00
DAV:   5    -0.168694580283E+03   -0.22709E-01   -0.25122E+00  1472   0.118E+01    0.423E+00
DAV:   6    -0.168572400216E+03    0.12218E+00   -0.12686E+00  1576   0.876E+00    0.244E+00
DAV:   7    -0.168637351752E+03   -0.64952E-01   -0.13509E+00  1568   0.806E+00    0.362E+00
DAV:   8    -0.168535384355E+03    0.10197E+00   -0.85394E-01  1600   0.683E+00    0.152E+00
DAV:   9    -0.168517729566E+03    0.17655E-01   -0.17441E-01  1432   0.309E+00    0.741E-01
DAV:  10    -0.168519401198E+03   -0.16716E-02   -0.59880E-02  1536   0.157E+00    0.749E-01
DAV:  11    -0.168514482555E+03    0.49186E-02   -0.32809E-02  1432   0.107E+00    0.143E-01
DAV:  12    -0.168514850139E+03   -0.36758E-03   -0.46682E-03  1560   0.524E-01    0.191E-01
DAV:  13    -0.168514497758E+03    0.35238E-03   -0.24135E-03  1608   0.418E-01    0.503E-02
DAV:  14    -0.168514491349E+03    0.64087E-05   -0.35356E-04  1592   0.144E-01    0.461E-02
DAV:  15    -0.168514472938E+03    0.18410E-04   -0.12240E-04  1248   0.832E-02    0.204E-02
DAV:  16    -0.168514465197E+03    0.77414E-05   -0.18873E-05   632   0.418E-02
  32 F= -.16851447E+03 E0= -.16846234E+03  d E =-.552072E+00
 curvature:  -4.69 expect dE=-0.863E+01 dE for cont linesearch -0.123E+01
 ZBRENT: bracketing found
 ZBRENT: interpolating
 opt :   2.0910  next Energy=  -168.794207 (dE=-0.832E+00)
 bond charge predicted
       N       E                     dE             d eps       ncg     rms          rms(c)
DAV:   1    -0.168509781867E+03    0.46911E-02   -0.17904E+02   816   0.550E+01    0.570E+00
DAV:   2    -0.173525233309E+03   -0.50155E+01   -0.45559E+01  1504   0.546E+01    0.241E+01
DAV:   3    -0.168920777602E+03    0.46045E+01   -0.25641E+01  1592   0.392E+01    0.501E+00
DAV:   4    -0.168911645385E+03    0.91322E-02   -0.24559E+00  1552   0.111E+01    0.276E+00
DAV:   5    -0.168901087317E+03    0.10558E-01   -0.55231E-01  1616   0.590E+00    0.267E+00
DAV:   6    -0.168868398892E+03    0.32688E-01   -0.64489E-01  1592   0.579E+00    0.201E+00
DAV:   7    -0.168887899505E+03   -0.19501E-01   -0.53262E-01  1392   0.432E+00    0.235E+00
DAV:   8    -0.168831307011E+03    0.56592E-01   -0.29200E-01  1464   0.324E+00    0.426E-01
DAV:   9    -0.168833874719E+03   -0.25677E-02   -0.43640E-02  1488   0.147E+00    0.576E-01
DAV:  10    -0.168830986221E+03    0.28885E-02   -0.20446E-02  1616   0.115E+00    0.141E-01
DAV:  11    -0.168831119283E+03   -0.13306E-03   -0.38909E-03  1576   0.459E-01    0.178E-01
DAV:  12    -0.168830871315E+03    0.24797E-03   -0.17945E-03  1408   0.297E-01    0.836E-02
DAV:  13    -0.168830832865E+03    0.38450E-04   -0.62779E-04  1352   0.179E-01    0.448E-02
DAV:  14    -0.168830818167E+03    0.14698E-04   -0.12892E-04  1224   0.894E-02    0.183E-02
DAV:  15    -0.168830818288E+03   -0.12148E-06   -0.43569E-05   912   0.464E-02
  33 F= -.16883082E+03 E0= -.16877728E+03  d E =-.868425E+00
 curvature:  -0.60 expect dE=-0.384E+00 dE for cont linesearch -0.294E-02
 trial: gam= 0.65897 g(F)=  0.328E+00 g(S)=  0.311E+00 ort = 0.858E-01 (trialstep = 0.681E+00)
 search vector abs. value=  0.141E+01
 bond charge predicted
       N       E                     dE             d eps       ncg     rms          rms(c)
DAV:   1    -0.169336209908E+03   -0.50539E+00   -0.47090E+01   868   0.319E+01    0.623E+00
DAV:   2    -0.176863134034E+03   -0.75269E+01   -0.54809E+01  1528   0.580E+01    0.342E+01
DAV:   3    -0.169119053837E+03    0.77441E+01   -0.39440E+01  1600   0.451E+01    0.422E+00
DAV:   4    -0.169241283356E+03   -0.12223E+00   -0.35328E+00  1408   0.129E+01    0.279E+00
DAV:   5    -0.169261144433E+03   -0.19861E-01   -0.90122E-01  1504   0.840E+00    0.307E+00
DAV:   6    -0.169204562436E+03    0.56582E-01   -0.55768E-01  1584   0.587E+00    0.140E+00
DAV:   7    -0.169199487028E+03    0.50754E-02   -0.20974E-01  1308   0.313E+00    0.121E+00
DAV:   8    -0.169187240658E+03    0.12246E-01   -0.11780E-01  1408   0.229E+00    0.685E-01
DAV:   9    -0.169185889823E+03    0.13508E-02   -0.38059E-02  1448   0.119E+00    0.564E-01
DAV:  10    -0.169184759279E+03    0.11305E-02   -0.12388E-02  1520   0.704E-01    0.374E-01
DAV:  11    -0.169184089489E+03    0.66979E-03   -0.45707E-03  1352   0.453E-01    0.249E-01
DAV:  12    -0.169183963249E+03    0.12624E-03   -0.36814E-03  1400   0.391E-01    0.178E-01
DAV:  13    -0.169183701503E+03    0.26175E-03   -0.25231E-03  1352   0.334E-01    0.585E-02
DAV:  14    -0.169183715972E+03   -0.14469E-04   -0.35347E-04  1440   0.129E-01    0.526E-02
DAV:  15    -0.169183695651E+03    0.20320E-04   -0.12810E-04  1152   0.799E-02    0.236E-02
DAV:  16    -0.169183694911E+03    0.74057E-06   -0.42613E-05   880   0.455E-02
  34 F= -.16918369E+03 E0= -.16912670E+03  d E =-.352877E+00
 trial-energy change:   -0.352877  1 .order   -0.354334   -0.474130   -0.234537
 step:   1.4024(harm=  1.3483)  dis= 0.12534  next Energy=  -169.306082 (dE=-0.475E+00)
 bond charge predicted
       N       E                     dE             d eps       ncg     rms          rms(c)
DAV:   1    -0.169471151556E+03   -0.28746E+00   -0.52631E+01   848   0.336E+01    0.656E+00
DAV:   2    -0.178098194047E+03   -0.86270E+01   -0.62375E+01  1528   0.603E+01    0.377E+01
DAV:   3    -0.169304325972E+03    0.87939E+01   -0.44857E+01  1608   0.482E+01    0.545E+00
DAV:   4    -0.169360449848E+03   -0.56124E-01   -0.44704E+00  1456   0.139E+01    0.271E+00
DAV:   5    -0.169404021318E+03   -0.43571E-01   -0.10873E+00  1584   0.849E+00    0.351E+00
DAV:   6    -0.169326615525E+03    0.77406E-01   -0.63220E-01  1600   0.635E+00    0.154E+00
DAV:   7    -0.169321727604E+03    0.48879E-02   -0.20773E-01  1396   0.330E+00    0.131E+00
DAV:   8    -0.169310333055E+03    0.11395E-01   -0.15655E-01  1408   0.244E+00    0.901E-01
DAV:   9    -0.169306085763E+03    0.42473E-02   -0.50420E-02  1536   0.133E+00    0.616E-01
DAV:  10    -0.169304918564E+03    0.11672E-02   -0.11113E-02  1568   0.731E-01    0.422E-01
DAV:  11    -0.169304176301E+03    0.74226E-03   -0.52114E-03  1344   0.478E-01    0.286E-01
DAV:  12    -0.169304231443E+03   -0.55142E-04   -0.53623E-03  1424   0.453E-01    0.240E-01
DAV:  13    -0.169303707372E+03    0.52407E-03   -0.43142E-03  1344   0.421E-01    0.624E-02
DAV:  14    -0.169303740078E+03   -0.32706E-04   -0.51993E-04  1400   0.150E-01    0.648E-02
DAV:  15    -0.169303711782E+03    0.28296E-04   -0.18014E-04  1240   0.949E-02    0.292E-02
DAV:  16    -0.169303710510E+03    0.12727E-05   -0.47219E-05   880   0.470E-02
  35 F= -.16930371E+03 E0= -.16923854E+03  d E =-.472892E+00
 curvature:  -1.35 expect dE=-0.866E+00 dE for cont linesearch -0.243E-04
 trial: gam= 0.85659 g(F)=  0.264E+00 g(S)=  0.377E+00 ort =-0.503E-02 (trialstep = 0.698E+00)
 search vector abs. value=  0.166E+01
 bond charge predicted
       N       E                     dE             d eps       ncg     rms          rms(c)
DAV:   1    -0.169819569054E+03   -0.51586E+00   -0.49846E+01   816   0.272E+01    0.528E+00
DAV:   2    -0.173875671230E+03   -0.40561E+01   -0.32490E+01  1616   0.441E+01    0.237E+01
DAV:   3    -0.169802162584E+03    0.40735E+01   -0.26336E+01  1604   0.371E+01    0.504E+00
DAV:   4    -0.169729163646E+03    0.72999E-01   -0.25457E+00  1532   0.104E+01    0.266E+00
DAV:   5    -0.169766571090E+03   -0.37407E-01   -0.95640E-01  1592   0.684E+00    0.313E+00
DAV:   6    -0.169677301957E+03    0.89269E-01   -0.73422E-01  1576   0.577E+00    0.124E+00
DAV:   7    -0.169679290546E+03   -0.19886E-02   -0.19872E-01  1592   0.323E+00    0.122E+00
DAV:   8    -0.169666218480E+03    0.13072E-01   -0.94574E-02  1616   0.225E+00    0.428E-01
DAV:   9    -0.169665444730E+03    0.77375E-03   -0.11622E-02  1560   0.875E-01    0.268E-01
DAV:  10    -0.169665026633E+03    0.41810E-03   -0.41612E-03  1584   0.462E-01    0.133E-01
DAV:  11    -0.169665069794E+03   -0.43161E-04   -0.27150E-03  1576   0.354E-01    0.126E-01
DAV:  12    -0.169664977900E+03    0.91894E-04   -0.14514E-03  1536   0.250E-01    0.804E-02
DAV:  13    -0.169664927651E+03    0.50249E-04   -0.43373E-04  1536   0.140E-01    0.325E-02
DAV:  14    -0.169664929777E+03   -0.21254E-05   -0.10549E-04  1232   0.760E-02    0.304E-02
DAV:  15    -0.169664922232E+03    0.75449E-05   -0.66865E-05   984   0.579E-02
  36 F= -.16966492E+03 E0= -.16959374E+03  d E =-.361212E+00
 trial-energy change:   -0.361212  1 .order   -0.357688   -0.443880   -0.271497
 step:   1.5597(harm=  1.7961)  dis= 0.14892  next Energy=  -169.839364 (dE=-0.536E+00)
 bond charge predicted
       N       E                     dE             d eps       ncg     rms          rms(c)
DAV:   1    -0.170064594727E+03   -0.39966E+00   -0.76047E+01   816   0.338E+01    0.663E+00
DAV:   2    -0.176458837360E+03   -0.63942E+01   -0.51048E+01  1616   0.561E+01    0.307E+01
DAV:   3    -0.170335568498E+03    0.61233E+01   -0.43355E+01  1560   0.480E+01    0.882E+00
DAV:   4    -0.169907890285E+03    0.42768E+00   -0.55607E+00  1600   0.156E+01    0.279E+00
DAV:   5    -0.170024954464E+03   -0.11706E+00   -0.18413E+00  1616   0.953E+00    0.457E+00
DAV:   6    -0.169861562084E+03    0.16339E+00   -0.11740E+00  1616   0.830E+00    0.174E+00
DAV:   7    -0.169855916095E+03    0.56460E-02   -0.33432E-01  1592   0.451E+00    0.143E+00
DAV:   8    -0.169841389314E+03    0.14527E-01   -0.14785E-01  1624   0.282E+00    0.702E-01
DAV:   9    -0.169838614595E+03    0.27747E-02   -0.20901E-02  1536   0.109E+00    0.366E-01
DAV:  10    -0.169838055043E+03    0.55955E-03   -0.64779E-03  1616   0.583E-01    0.210E-01
DAV:  11    -0.169837970412E+03    0.84631E-04   -0.50677E-03  1368   0.469E-01    0.149E-01
DAV:  12    -0.169837893838E+03    0.76573E-04   -0.17568E-03  1576   0.305E-01    0.922E-02
DAV:  13    -0.169837806512E+03    0.87326E-04   -0.61586E-04  1376   0.181E-01    0.349E-02
DAV:  14    -0.169837810234E+03   -0.37212E-05   -0.11375E-04  1144   0.711E-02    0.303E-02
DAV:  15    -0.169837803815E+03    0.64188E-05   -0.56336E-05   920   0.582E-02
  37 F= -.16983780E+03 E0= -.16977173E+03  d E =-.534093E+00
 curvature:  -2.24 expect dE=-0.192E+01 dE for cont linesearch -0.482E-03
 trial: gam= 1.22960 g(F)=  0.615E+00 g(S)=  0.243E+00 ort =-0.189E-01 (trialstep = 0.435E+00)
 search vector abs. value=  0.333E+01
 bond charge predicted
       N       E                     dE             d eps       ncg     rms          rms(c)
DAV:   1    -0.170140965964E+03   -0.30316E+00   -0.43846E+01   816   0.254E+01    0.311E+00
DAV:   2    -0.171794306940E+03   -0.16533E+01   -0.11788E+01  1616   0.255E+01    0.160E+01
DAV:   3    -0.170248517448E+03    0.15458E+01   -0.10066E+01  1608   0.223E+01    0.394E+00
DAV:   4    -0.170173735678E+03    0.74782E-01   -0.11889E+00  1488   0.740E+00    0.180E+00
DAV:   5    -0.170197113735E+03   -0.23378E-01   -0.54855E-01  1616   0.547E+00    0.252E+00
DAV:   6    -0.170142543706E+03    0.54570E-01   -0.47578E-01  1536   0.483E+00    0.856E-01
DAV:   7    -0.170148719770E+03   -0.61761E-02   -0.14481E-01  1584   0.284E+00    0.122E+00
DAV:   8    -0.170138170599E+03    0.10549E-01   -0.87374E-02  1616   0.232E+00    0.542E-01
DAV:   9    -0.170135840369E+03    0.23302E-02   -0.19167E-02  1520   0.108E+00    0.175E-01
DAV:  10    -0.170135849296E+03   -0.89271E-05   -0.31104E-03  1512   0.406E-01    0.140E-01
DAV:  11    -0.170135670414E+03    0.17888E-03   -0.16919E-03  1536   0.285E-01    0.605E-02
DAV:  12    -0.170135650716E+03    0.19697E-04   -0.19922E-04  1512   0.108E-01    0.186E-02
DAV:  13    -0.170135653946E+03   -0.32300E-05   -0.76222E-05  1080   0.662E-02
  38 F= -.17013565E+03 E0= -.17006988E+03  d E =-.297850E+00
 trial-energy change:   -0.297850  1 .order   -0.295691   -0.363112   -0.228271
 step:   1.0345(harm=  1.1714)  dis= 0.12967  next Energy=  -170.298594 (dE=-0.461E+00)
 bond charge predicted
       N       E                     dE             d eps       ncg     rms          rms(c)
DAV:   1    -0.170299981708E+03   -0.16433E+00   -0.83559E+01   816   0.356E+01    0.401E+00
DAV:   2    -0.173075934924E+03   -0.27760E+01   -0.19216E+01  1592   0.314E+01    0.222E+01
DAV:   3    -0.170545914206E+03    0.25300E+01   -0.16820E+01  1600   0.286E+01    0.549E+00
DAV:   4    -0.170379535312E+03    0.16638E+00   -0.21924E+00  1448   0.992E+00    0.249E+00
DAV:   5    -0.170435314194E+03   -0.55779E-01   -0.11143E+00  1600   0.784E+00    0.375E+00
DAV:   6    -0.170317326963E+03    0.11799E+00   -0.94356E-01  1588   0.694E+00    0.113E+00
DAV:   7    -0.170329127259E+03   -0.11800E-01   -0.23511E-01  1536   0.357E+00    0.153E+00
DAV:   8    -0.170308120295E+03    0.21007E-01   -0.14747E-01  1616   0.290E+00    0.596E-01
DAV:   9    -0.170306181471E+03    0.19388E-02   -0.25233E-02  1600   0.132E+00    0.325E-01
DAV:  10    -0.170305750425E+03    0.43105E-03   -0.57122E-03  1600   0.647E-01    0.180E-01
DAV:  11    -0.170305565892E+03    0.18453E-03   -0.38147E-03  1576   0.410E-01    0.118E-01
DAV:  12    -0.170305546650E+03    0.19241E-04   -0.13149E-03  1584   0.245E-01    0.944E-02
DAV:  13    -0.170305467551E+03    0.79099E-04   -0.62468E-04  1560   0.169E-01    0.213E-02
DAV:  14    -0.170305467007E+03    0.54449E-06   -0.22336E-05   664   0.411E-02
  39 F= -.17030547E+03 E0= -.17023721E+03  d E =-.467663E+00
 curvature:  -2.25 expect dE=-0.915E+00 dE for cont linesearch -0.585E-03
 trial: gam=-0.01083 g(F)=  0.393E+00 g(S)=  0.134E-01 ort = 0.294E-01 (trialstep = 0.555E+00)
 search vector abs. value=  0.406E+00
 bond charge predicted
       N       E                     dE             d eps       ncg     rms          rms(c)
DAV:   1    -0.170497187510E+03   -0.19172E+00   -0.87648E+00   816   0.110E+01    0.174E+00
DAV:   2    -0.171285804254E+03   -0.78862E+00   -0.55188E+00  1616   0.176E+01    0.997E+00
DAV:   3    -0.170500003785E+03    0.78580E+00   -0.39338E+00  1616   0.131E+01    0.172E+00
DAV:   4    -0.170501979125E+03   -0.19753E-02   -0.36770E-01  1452   0.352E+00    0.101E+00
DAV:   5    -0.170500402737E+03    0.15764E-02   -0.74136E-02  1624   0.196E+00    0.805E-01
DAV:   6    -0.170495097504E+03    0.53052E-02   -0.58586E-02  1528   0.157E+00    0.468E-01
DAV:   7    -0.170498146388E+03   -0.30489E-02   -0.39286E-02  1616   0.150E+00    0.813E-01
DAV:   8    -0.170493724919E+03    0.44215E-02   -0.27889E-02  1616   0.129E+00    0.235E-01
DAV:   9    -0.170493313504E+03    0.41142E-03   -0.47014E-03  1496   0.478E-01    0.971E-02
DAV:  10    -0.170493325622E+03   -0.12118E-04   -0.11677E-03  1400   0.250E-01    0.872E-02
DAV:  11    -0.170493247286E+03    0.78336E-04   -0.51903E-04  1296   0.151E-01    0.214E-02
DAV:  12    -0.170493253408E+03   -0.61221E-05   -0.87365E-05  1152   0.593E-02
  40 F= -.17049325E+03 E0= -.17042516E+03  d E =-.187786E+00
 trial-energy change:   -0.187786  1 .order   -0.187841   -0.225069   -0.150613
 step:   1.6774(harm=  1.6774)  dis= 0.07317  next Energy=  -170.645641 (dE=-0.340E+00)
 bond charge predicted
       N       E                     dE             d eps       ncg     rms          rms(c)
DAV:   1    -0.170684267536E+03   -0.19102E+00   -0.36527E+01   816   0.230E+01    0.360E+00
DAV:   2    -0.173860871317E+03   -0.31766E+01   -0.23429E+01  1608   0.361E+01    0.186E+01
DAV:   3    -0.170630301909E+03    0.32306E+01   -0.14062E+01  1616   0.278E+01    0.180E+00
DAV:   4    -0.170689295373E+03   -0.58993E-01   -0.10044E+00  1312   0.668E+00    0.162E+00
DAV:   5    -0.170686057036E+03    0.32383E-02   -0.32044E-01  1592   0.402E+00    0.178E+00
DAV:   6    -0.170673554702E+03    0.12502E-01   -0.24739E-01  1600   0.338E+00    0.116E+00
DAV:   7    -0.170673940192E+03   -0.38549E-03   -0.12887E-01  1616   0.254E+00    0.137E+00
DAV:   8    -0.170662561352E+03    0.11379E-01   -0.82454E-02  1616   0.199E+00    0.547E-01
DAV:   9    -0.170662223419E+03    0.33793E-03   -0.27525E-02  1576   0.119E+00    0.415E-01
DAV:  10    -0.170660952131E+03    0.12713E-02   -0.10259E-02  1496   0.677E-01    0.202E-01
DAV:  11    -0.170660668199E+03    0.28393E-03   -0.27880E-03  1456   0.385E-01    0.110E-01
DAV:  12    -0.170660585912E+03    0.82287E-04   -0.68124E-04  1488   0.169E-01    0.420E-02
DAV:  13    -0.170660579873E+03    0.60392E-05   -0.21239E-04  1304   0.106E-01    0.290E-02
DAV:  14    -0.170660576989E+03    0.28836E-05   -0.20361E-05   664   0.421E-02
  41 F= -.17066058E+03 E0= -.17059575E+03  d E =-.355110E+00
 curvature:  -0.84 expect dE=-0.219E+00 dE for cont linesearch -0.193E-02
 trial: gam= 0.56562 g(F)=  0.439E-01 g(S)=  0.217E+00 ort = 0.306E-01 (trialstep = 0.743E+00)
 search vector abs. value=  0.426E+00
 bond charge predicted
       N       E                     dE             d eps       ncg     rms          rms(c)
DAV:   1    -0.171176934885E+03   -0.51636E+00   -0.18219E+01   872   0.269E+01    0.841E+00
DAV:   2    -0.181502301785E+03   -0.10325E+02   -0.80632E+01  1600   0.761E+01    0.362E+01
DAV:   3    -0.170647281498E+03    0.10855E+02   -0.54588E+01  1592   0.542E+01    0.766E+00
DAV:   4    -0.170905966990E+03   -0.25869E+00   -0.88532E+00  1388   0.173E+01    0.420E+00
DAV:   5    -0.170888164009E+03    0.17803E-01   -0.16253E+00  1432   0.693E+00    0.384E+00
DAV:   6    -0.170799441970E+03    0.88722E-01   -0.76613E-01  1548   0.626E+00    0.217E+00
DAV:   7    -0.170794415742E+03    0.50262E-02   -0.31446E-01  1616   0.449E+00    0.201E+00
DAV:   8    -0.170773293729E+03    0.21122E-01   -0.21261E-01  1616   0.357E+00    0.102E+00
DAV:   9    -0.170772978306E+03    0.31542E-03   -0.36648E-02  1352   0.145E+00    0.952E-01
DAV:  10    -0.170769784540E+03    0.31938E-02   -0.11575E-02  1464   0.840E-01    0.664E-01
DAV:  11    -0.170769040244E+03    0.74430E-03   -0.87626E-03  1532   0.612E-01    0.486E-01
DAV:  12    -0.170767723109E+03    0.13171E-02   -0.55714E-03  1576   0.509E-01    0.220E-01
DAV:  13    -0.170767694600E+03    0.28508E-04   -0.83441E-04  1340   0.178E-01    0.178E-01
DAV:  14    -0.170767610819E+03    0.83781E-04   -0.25293E-04  1488   0.997E-02    0.115E-01
DAV:  15    -0.170767565831E+03    0.44988E-04   -0.21785E-04  1568   0.974E-02    0.651E-02
DAV:  16    -0.170767533982E+03    0.31849E-04   -0.17524E-04  1464   0.885E-02    0.195E-02
DAV:  17    -0.170767531542E+03    0.24405E-05   -0.92628E-06   552   0.275E-02
  42 F= -.17076753E+03 E0= -.17070961E+03  d E =-.106955E+00
 trial-energy change:   -0.106955  1 .order   -0.104343   -0.206943   -0.001743
 step:   0.7487(harm=  0.7491)  dis= 0.01968  next Energy=  -170.767538 (dE=-0.107E+00)
 bond charge predicted
       N       E                     dE             d eps       ncg     rms          rms(c)
[...]
DAV:   7    -0.172827909907E+03    0.10409E-05   -0.19343E-05   688   0.566E-02
 105 F= -.17282791E+03 E0= -.17275330E+03  d E =-.139201E-02
 curvature:  -3.64 expect dE=-0.461E-02 dE for cont linesearch -0.270E-06
 trial: gam= 0.42086 g(F)=  0.117E-02 g(S)=  0.985E-04 ort =-0.371E-04 (trialstep = 0.439E+00)
 search vector abs. value=  0.451E-02
 bond charge predicted
       N       E                     dE             d eps       ncg     rms          rms(c)
DAV:   1    -0.172828419681E+03   -0.50873E-03   -0.62408E-02   824   0.853E-01    0.952E-02
DAV:   2    -0.172830279710E+03   -0.18600E-02   -0.14643E-02  1528   0.910E-01    0.396E-01
DAV:   3    -0.172828434045E+03    0.18457E-02   -0.98078E-03  1592   0.788E-01    0.619E-02
DAV:   4    -0.172828456092E+03   -0.22047E-04   -0.59354E-04  1416   0.198E-01    0.560E-02
DAV:   5    -0.172828443968E+03    0.12124E-04   -0.23813E-04  1416   0.135E-01    0.410E-02
DAV:   6    -0.172828437589E+03    0.63794E-05   -0.21445E-04  1312   0.107E-01    0.316E-02
DAV:   7    -0.172828437769E+03   -0.18061E-06   -0.11337E-04  1320   0.869E-02    0.361E-02
DAV:   8    -0.172828427577E+03    0.10192E-04   -0.43072E-05   956   0.677E-02    0.981E-03
DAV:   9    -0.172828427819E+03   -0.24162E-06   -0.17072E-05   528   0.292E-02
 106 F= -.17282843E+03 E0= -.17275405E+03  d E =-.517912E-03
 ZBRENT: can't locate minimum, use default step
 trial-energy change:   -0.000518  1 .order   -0.000510   -0.000550   -0.000470
 step:   1.7553(harm=  3.0093)  dis= 0.00759  next Energy=  -172.829796 (dE=-0.189E-02)
 bond charge predicted
       N       E                     dE             d eps       ncg     rms          rms(c)
DAV:   1    -0.172829503876E+03   -0.10763E-02   -0.56118E-01   816   0.256E+00    0.288E-01
DAV:   2    -0.172846836185E+03   -0.17332E-01   -0.13843E-01  1536   0.275E+00    0.123E+00
DAV:   3    -0.172829665176E+03    0.17171E-01   -0.91525E-02  1596   0.242E+00    0.200E-01
DAV:   4    -0.172829779462E+03   -0.11429E-03   -0.54247E-03  1408   0.600E-01    0.149E-01
DAV:   5    -0.172829702115E+03    0.77348E-04   -0.17823E-03  1416   0.369E-01    0.118E-01
DAV:   6    -0.172829655591E+03    0.46523E-04   -0.17663E-03  1472   0.312E-01    0.967E-02
DAV:   7    -0.172829677518E+03   -0.21926E-04   -0.11917E-03  1616   0.267E-01    0.122E-01
DAV:   8    -0.172829570580E+03    0.10694E-03   -0.60240E-04  1616   0.208E-01    0.312E-02
DAV:   9    -0.172829568534E+03    0.20462E-05   -0.10454E-04  1232   0.792E-02    0.234E-02
DAV:  10    -0.172829563110E+03    0.54236E-05   -0.18138E-05   628   0.457E-02
 107 F= -.17282956E+03 E0= -.17275617E+03  d E =-.165320E-02
 curvature:  -4.13 expect dE=-0.227E-02 dE for cont linesearch -0.270E-03
 ZBRENT: increasing intervall
 opt :   4.3882  next Energy=  -172.829605 (dE=-0.169E-02)
 bond charge predicted
       N       E                     dE             d eps       ncg     rms          rms(c)
DAV:   1    -0.172829303749E+03    0.26478E-03   -0.22455E+00   816   0.513E+00    0.583E-01
DAV:   2    -0.172900276568E+03   -0.70973E-01   -0.56320E-01  1544   0.561E+00    0.249E+00
DAV:   3    -0.172830078355E+03    0.70198E-01   -0.37159E-01  1608   0.489E+00    0.416E-01
DAV:   4    -0.172830429095E+03   -0.35074E-03   -0.22320E-02  1392   0.122E+00    0.298E-01
DAV:   5    -0.172830177741E+03    0.25135E-03   -0.67970E-03  1392   0.728E-01    0.237E-01
DAV:   6    -0.172829955330E+03    0.22241E-03   -0.77001E-03  1448   0.634E-01    0.200E-01
DAV:   7    -0.172830120395E+03   -0.16506E-03   -0.52874E-03  1608   0.585E-01    0.271E-01
DAV:   8    -0.172829600706E+03    0.51969E-03   -0.27786E-03  1600   0.451E-01    0.629E-02
DAV:   9    -0.172829593905E+03    0.68010E-05   -0.46008E-04  1416   0.158E-01    0.480E-02
DAV:  10    -0.172829574662E+03    0.19243E-04   -0.13072E-04  1264   0.895E-02    0.146E-02
DAV:  11    -0.172829576200E+03   -0.15377E-05   -0.25079E-05   708   0.486E-02
 108 F= -.17282958E+03 E0= -.17275904E+03  d E =-.166629E-02
 curvature:  -0.64 expect dE=-0.875E-03 dE for cont linesearch -0.722E-04
 ZBRENT: bracketing found
 ZBRENT: interpolating
 opt :   2.8907  next Energy=  -172.829872 (dE=-0.196E-02)
 bond charge predicted
       N       E                     dE             d eps       ncg     rms          rms(c)
DAV:   1    -0.172829898998E+03   -0.32434E-03   -0.72501E-01   816   0.291E+00    0.315E-01
DAV:   2    -0.172850017268E+03   -0.20118E-01   -0.16319E-01  1544   0.295E+00    0.133E+00
DAV:   3    -0.172830199456E+03    0.19818E-01   -0.10973E-01  1608   0.262E+00    0.231E-01
DAV:   4    -0.172830301697E+03   -0.10224E-03   -0.66328E-03  1464   0.679E-01    0.174E-01
DAV:   5    -0.172830206216E+03    0.95481E-04   -0.26322E-03  1496   0.438E-01    0.144E-01
DAV:   6    -0.172830077963E+03    0.12825E-03   -0.23610E-03  1408   0.351E-01    0.101E-01
DAV:   7    -0.172830119668E+03   -0.41705E-04   -0.14297E-03  1592   0.300E-01    0.136E-01
DAV:   8    -0.172829985042E+03    0.13463E-03   -0.78506E-04  1584   0.236E-01    0.342E-02
DAV:   9    -0.172829983768E+03    0.12733E-05   -0.15489E-04  1344   0.930E-02    0.281E-02
DAV:  10    -0.172829975356E+03    0.84119E-05   -0.36338E-05   824   0.521E-02
 109 F= -.17282998E+03 E0= -.17275769E+03  d E =-.206545E-02
 curvature:  -2.71 expect dE=-0.200E-02 dE for cont linesearch -0.581E-05
 trial: gam= 0.32214 g(F)=  0.541E-03 g(S)=  0.197E-03 ort = 0.984E-04 (trialstep = 0.929E+00)
 search vector abs. value=  0.127E-02
 bond charge predicted
       N       E                     dE             d eps       ncg     rms          rms(c)
DAV:   1    -0.172831177620E+03   -0.11939E-02   -0.96794E-02   864   0.157E+00    0.422E-01
DAV:   2    -0.172868837779E+03   -0.37660E-01   -0.23465E-01  1616   0.426E+00    0.242E+00
DAV:   3    -0.172830408591E+03    0.38429E-01   -0.17394E-01  1616   0.348E+00    0.231E-01
DAV:   4    -0.172830526532E+03   -0.11794E-03   -0.10796E-02  1320   0.721E-01    0.125E-01
DAV:   5    -0.172830572527E+03   -0.45995E-04   -0.19209E-03  1488   0.358E-01    0.123E-01
DAV:   6    -0.172830480375E+03    0.92152E-04   -0.13660E-03  1512   0.297E-01    0.866E-02
DAV:   7    -0.172830507048E+03   -0.26673E-04   -0.67662E-04  1520   0.227E-01    0.103E-01
DAV:   8    -0.172830427302E+03    0.79746E-04   -0.50612E-04  1560   0.168E-01    0.195E-02
DAV:   9    -0.172830426474E+03    0.82799E-06   -0.26463E-05   712   0.451E-02
 110 F= -.17283043E+03 E0= -.17275873E+03  d E =-.451118E-03
 trial-energy change:   -0.000451  1 .order   -0.000454   -0.000715   -0.000192
 step:   1.2705(harm=  1.2705)  dis= 0.00319  next Energy=  -172.830464 (dE=-0.489E-03)
 bond charge predicted
       N       E                     dE             d eps       ncg     rms          rms(c)
DAV:   1    -0.172830577152E+03   -0.14985E-03   -0.13122E-02   876   0.575E-01    0.152E-01
DAV:   2    -0.172835323976E+03   -0.47468E-02   -0.29178E-02  1624   0.152E+00    0.853E-01
DAV:   3    -0.172830474491E+03    0.48495E-02   -0.21743E-02  1616   0.125E+00    0.824E-02
DAV:   4    -0.172830491910E+03   -0.17420E-04   -0.13945E-03  1328   0.258E-01    0.474E-02
DAV:   5    -0.172830497695E+03   -0.57851E-05   -0.27614E-04  1480   0.136E-01    0.471E-02
DAV:   6    -0.172830483105E+03    0.14591E-04   -0.19099E-04  1456   0.112E-01    0.308E-02
DAV:   7    -0.172830485960E+03   -0.28548E-05   -0.79207E-05  1192   0.842E-02
 111 F= -.17283049E+03 E0= -.17275901E+03  d E =-.510603E-03
 curvature:  -1.05 expect dE=-0.726E-03 dE for cont linesearch -0.103E-04
 trial: gam= 0.81045 g(F)=  0.325E-03 g(S)=  0.367E-03 ort = 0.112E-03 (trialstep = 0.742E+00)
 search vector abs. value=  0.171E-02
 bond charge predicted
       N       E                     dE             d eps       ncg     rms          rms(c)
DAV:   1    -0.172831111058E+03   -0.62795E-03   -0.81345E-02   816   0.107E+00    0.177E-01
DAV:   2    -0.172837694263E+03   -0.65832E-02   -0.44397E-02  1616   0.169E+00    0.870E-01
DAV:   3    -0.172831073743E+03    0.66205E-02   -0.32325E-02  1616   0.146E+00    0.135E-01
DAV:   4    -0.172831018070E+03    0.55673E-04   -0.21375E-03  1336   0.339E-01    0.647E-02
DAV:   5    -0.172831050812E+03   -0.32741E-04   -0.79356E-04  1552   0.221E-01    0.903E-02
DAV:   6    -0.172830998774E+03    0.52038E-04   -0.67275E-04  1576   0.193E-01    0.514E-02
DAV:   7    -0.172831006322E+03   -0.75480E-05   -0.21624E-04  1512   0.129E-01    0.564E-02
DAV:   8    -0.172830982108E+03    0.24213E-04   -0.15287E-04  1480   0.967E-02    0.133E-02
DAV:   9    -0.172830984682E+03   -0.25740E-05   -0.26618E-05   688   0.538E-02
 112 F= -.17283098E+03 E0= -.17276023E+03  d E =-.498723E-03
 trial-energy change:   -0.000499  1 .order   -0.000474   -0.000581   -0.000367
 step:   2.0170(harm=  2.0170)  dis= 0.00673  next Energy=  -172.831276 (dE=-0.790E-03)
 bond charge predicted
       N       E                     dE             d eps       ncg     rms          rms(c)
DAV:   1    -0.172831619015E+03   -0.63691E-03   -0.23983E-01   816   0.183E+00    0.303E-01
DAV:   2    -0.172850345521E+03   -0.18727E-01   -0.13013E-01  1616   0.285E+00    0.145E+00
DAV:   3    -0.172831510070E+03    0.18835E-01   -0.93798E-02  1616   0.248E+00    0.236E-01
DAV:   4    -0.172831316237E+03    0.19383E-03   -0.62856E-03  1336   0.584E-01    0.108E-01
DAV:   5    -0.172831419156E+03   -0.10292E-03   -0.23827E-03  1552   0.378E-01    0.155E-01
DAV:   6    -0.172831250671E+03    0.16849E-03   -0.19832E-03  1584   0.325E-01    0.820E-02
DAV:   7    -0.172831277793E+03   -0.27122E-04   -0.60919E-04  1600   0.215E-01    0.960E-02
DAV:   8    -0.172831207320E+03    0.70473E-04   -0.42619E-04  1576   0.163E-01    0.221E-02
DAV:   9    -0.172831217513E+03   -0.10193E-04   -0.11631E-04  1360   0.872E-02    0.352E-02
DAV:  10    -0.172831206130E+03    0.11383E-04   -0.61326E-05  1024   0.731E-02    0.926E-03
DAV:  11    -0.172831205681E+03    0.44863E-06   -0.11641E-05   508   0.255E-02
 113 F= -.17283121E+03 E0= -.17276165E+03  d E =-.719722E-03
 curvature:  -2.20 expect dE=-0.168E-02 dE for cont linesearch -0.323E-04
 ZBRENT: interpolating
 opt :   1.7080  next Energy=  -172.831230 (dE=-0.744E-03)
 bond charge predicted
       N       E                     dE             d eps       ncg     rms          rms(c)
DAV:   1    -0.172831261470E+03   -0.55340E-04   -0.14120E-02   816   0.446E-01    0.727E-02
DAV:   2    -0.172832341408E+03   -0.10799E-02   -0.76127E-03  1616   0.688E-01    0.352E-01
DAV:   3    -0.172831250000E+03    0.10914E-02   -0.55340E-03  1616   0.598E-01    0.572E-02
DAV:   4    -0.172831237937E+03    0.12063E-04   -0.36126E-04  1344   0.140E-01    0.259E-02
DAV:   5    -0.172831238863E+03   -0.92608E-06   -0.12301E-04  1320   0.867E-02    0.335E-02
DAV:   6    -0.172831230428E+03    0.84350E-05   -0.10061E-04  1344   0.780E-02    0.205E-02
DAV:   7    -0.172831230188E+03    0.24045E-06   -0.24071E-05   780   0.548E-02
 114 F= -.17283123E+03 E0= -.17276140E+03  d E =-.744228E-03
 curvature:  -1.67 expect dE=-0.889E-03 dE for cont linesearch -0.150E-06
 trial: gam= 1.01915 g(F)=  0.312E-03 g(S)=  0.221E-03 ort =-0.124E-04 (trialstep = 0.700E+00)
 search vector abs. value=  0.228E-02
 bond charge predicted
       N       E                     dE             d eps       ncg     rms          rms(c)
DAV:   1    -0.172831657674E+03   -0.42725E-03   -0.80141E-02   816   0.104E+00    0.197E-01
DAV:   2    -0.172839583578E+03   -0.79259E-02   -0.58044E-02  1616   0.201E+00    0.969E-01
DAV:   3    -0.172831570927E+03    0.80127E-02   -0.40639E-02  1616   0.166E+00    0.149E-01
DAV:   4    -0.172831527591E+03    0.43335E-04   -0.21018E-03  1296   0.364E-01    0.708E-02
DAV:   5    -0.172831529990E+03   -0.23985E-05   -0.35817E-04  1344   0.150E-01    0.549E-02
DAV:   6    -0.172831529385E+03    0.60453E-06   -0.41945E-04  1536   0.144E-01    0.630E-02
DAV:   7    -0.172831540489E+03   -0.11103E-04   -0.33450E-04  1552   0.155E-01    0.770E-02
DAV:   8    -0.172831500188E+03    0.40301E-04   -0.21874E-04  1528   0.123E-01    0.156E-02
DAV:   9    -0.172831499896E+03    0.29215E-06   -0.23340E-05   656   0.426E-02
 115 F= -.17283150E+03 E0= -.17276229E+03  d E =-.269708E-03
 trial-energy change:   -0.000270  1 .order   -0.000255   -0.000364   -0.000146
 step:   1.1687(harm=  1.1687)  dis= 0.00267  next Energy=  -172.831535 (dE=-0.304E-03)
 bond charge predicted
       N       E                     dE             d eps       ncg     rms          rms(c)
DAV:   1    -0.172831653819E+03   -0.15363E-03   -0.36180E-02   816   0.704E-01    0.133E-01
DAV:   2    -0.172835181218E+03   -0.35274E-02   -0.25531E-02  1616   0.135E+00    0.653E-01
DAV:   3    -0.172831616920E+03    0.35643E-02   -0.18147E-02  1616   0.111E+00    0.101E-01
DAV:   4    -0.172831597359E+03    0.19561E-04   -0.96213E-04  1304   0.247E-01    0.494E-02
DAV:   5    -0.172831596629E+03    0.72963E-06   -0.16239E-04  1264   0.102E-01    0.374E-02
DAV:   6    -0.172831597717E+03   -0.10876E-05   -0.20007E-04  1416   0.101E-01    0.443E-02
DAV:   7    -0.172831601995E+03   -0.42780E-05   -0.15514E-04  1352   0.110E-01    0.513E-02
DAV:   8    -0.172831583418E+03    0.18577E-04   -0.96829E-05  1288   0.859E-02    0.113E-02
DAV:   9    -0.172831583326E+03    0.91716E-07   -0.13337E-05   516   0.317E-02
 116 F= -.17283158E+03 E0= -.17276280E+03  d E =-.353139E-03
 curvature:  -2.56 expect dE=-0.579E-03 dE for cont linesearch -0.210E-05
 trial: gam= 0.13360 g(F)=  0.215E-03 g(S)=  0.112E-04 ort = 0.433E-04 (trialstep = 0.793E+00)
 search vector abs. value=  0.278E-03
 bond charge predicted
       N       E                     dE             d eps       ncg     rms          rms(c)
DAV:   1    -0.172831765665E+03   -0.18225E-03   -0.12774E-02   816   0.412E-01    0.855E-02
DAV:   2    -0.172833970210E+03   -0.22045E-02   -0.13570E-02  1616   0.970E-01    0.537E-01
DAV:   3    -0.172831720976E+03    0.22492E-02   -0.10314E-02  1616   0.823E-01    0.428E-02
DAV:   4    -0.172831746448E+03   -0.25472E-04   -0.49205E-04  1288   0.146E-01    0.338E-02
DAV:   5    -0.172831744555E+03    0.18924E-05   -0.89646E-05  1256   0.808E-02
 117 F= -.17283174E+03 E0= -.17276290E+03  d E =-.161229E-03
 ZBRENT: can't locate minimum, use default step
 trial-energy change:   -0.000161  1 .order   -0.000165   -0.000184   -0.000145
 step:   3.1737(harm=  3.7836)  dis= 0.00318  next Energy=  -172.832022 (dE=-0.439E-03)
 bond charge predicted
       N       E                     dE             d eps       ncg     rms          rms(c)
DAV:   1    -0.172832137222E+03   -0.39077E-03   -0.11433E-01   816   0.124E+00    0.264E-01
DAV:   2    -0.172853109067E+03   -0.20972E-01   -0.12829E-01  1616   0.299E+00    0.165E+00
DAV:   3    -0.172831676902E+03    0.21432E-01   -0.97767E-02  1616   0.253E+00    0.129E-01
DAV:   4    -0.172831941620E+03   -0.26472E-03   -0.46541E-03  1312   0.448E-01    0.112E-01
DAV:   5    -0.172831911172E+03    0.30448E-04   -0.89430E-04  1488   0.250E-01    0.756E-02
DAV:   6    -0.172831901901E+03    0.92707E-05   -0.81033E-04  1544   0.202E-01    0.724E-02
DAV:   7    -0.172831871862E+03    0.30039E-04   -0.47986E-04  1548   0.147E-01    0.456E-02
DAV:   8    -0.172831865046E+03    0.68164E-05   -0.17726E-04  1552   0.101E-01    0.408E-02
DAV:   9    -0.172831854719E+03    0.10326E-04   -0.33050E-05   776   0.632E-02    0.157E-02
DAV:  10    -0.172831853043E+03    0.16767E-05   -0.14439E-05   580   0.365E-02
 118 F= -.17283185E+03 E0= -.17276283E+03  d E =-.269716E-03
 curvature:  -2.18 expect dE=-0.111E-02 dE for cont linesearch -0.429E-04
 ZBRENT: interpolating
 opt :   2.4887  next Energy=  -172.831878 (dE=-0.295E-03)
 bond charge predicted
       N       E                     dE             d eps       ncg     rms          rms(c)
DAV:   1    -0.172831899694E+03   -0.44975E-04   -0.95027E-03   816   0.356E-01    0.731E-02
DAV:   2    -0.172833544436E+03   -0.16447E-02   -0.10387E-02  1616   0.834E-01    0.462E-01
DAV:   3    -0.172831863489E+03    0.16809E-02   -0.77577E-03  1608   0.708E-01    0.370E-02
DAV:   4    -0.172831881724E+03   -0.18235E-04   -0.36734E-04  1304   0.126E-01    0.275E-02
DAV:   5    -0.172831879654E+03    0.20701E-05   -0.59746E-05  1112   0.675E-02
 119 F= -.17283188E+03 E0= -.17276291E+03  d E =-.296328E-03
 curvature:  -1.29 expect dE=-0.213E-03 dE for cont linesearch -0.301E-05
 trial: gam= 0.86141 g(F)=  0.705E-04 g(S)=  0.950E-04 ort =-0.255E-04 (trialstep = 0.961E+00)
 search vector abs. value=  0.328E-03
 bond charge predicted
       N       E                     dE             d eps       ncg     rms          rms(c)
DAV:   1    -0.172832181867E+03   -0.30014E-03   -0.21446E-02   896   0.748E-01    0.189E-01
DAV:   2    -0.172838037445E+03   -0.58556E-02   -0.39093E-02  1624   0.170E+00    0.961E-01
DAV:   3    -0.172832007744E+03    0.60297E-02   -0.29412E-02  1624   0.144E+00    0.113E-01
DAV:   4    -0.172832002310E+03    0.54344E-05   -0.22944E-03  1312   0.340E-01    0.629E-02
DAV:   5    -0.172832016472E+03   -0.14162E-04   -0.67585E-04  1472   0.203E-01    0.723E-02
DAV:   6    -0.172831969432E+03    0.47040E-04   -0.37600E-04  1600   0.150E-01    0.331E-02
DAV:   7    -0.172831970910E+03   -0.14782E-05   -0.98811E-05  1328   0.906E-02
 120 F= -.17283197E+03 E0= -.17276287E+03  d E =-.912557E-04
 trial-energy change:   -0.000091  1 .order   -0.000088   -0.000138   -0.000038
 step:   1.3237(harm=  1.3237)  dis= 0.00154  next Energy=  -172.831975 (dE=-0.950E-04)
 bond charge predicted
       N       E                     dE             d eps       ncg     rms          rms(c)
DAV:   1    -0.172831987672E+03   -0.18240E-04   -0.31270E-03   988   0.285E-01    0.692E-02
DAV:   2    -0.172832690798E+03   -0.70313E-03   -0.48171E-03  1632   0.569E-01    0.337E-01
DAV:   3    -0.172831956785E+03    0.73401E-03   -0.36826E-03  1624   0.506E-01    0.416E-02
DAV:   4    -0.172831958337E+03   -0.15524E-05   -0.30989E-04  1320   0.126E-01    0.257E-02
DAV:   5    -0.172831955839E+03    0.24982E-05   -0.79876E-05  1080   0.763E-02
 121 F= -.17283196E+03 E0= -.17276282E+03  d E =-.761850E-04
 curvature:  -1.51 expect dE=-0.154E-03 dE for cont linesearch -0.140E-05
 trial: gam= 0.62515 g(F)=  0.491E-04 g(S)=  0.524E-04 ort =-0.174E-04 (trialstep = 0.103E+01)
 search vector abs. value=  0.208E-03
 bond charge predicted
       N       E                     dE             d eps       ncg     rms          rms(c)
DAV:   1    -0.172832028035E+03   -0.69698E-04   -0.12567E-02   816   0.414E-01    0.721E-02
DAV:   2    -0.172833158321E+03   -0.11303E-02   -0.80938E-03  1592   0.702E-01    0.380E-01
DAV:   3    -0.172832015927E+03    0.11424E-02   -0.58802E-03  1608   0.601E-01    0.574E-02
DAV:   4    -0.172832007339E+03    0.85878E-05   -0.41715E-04  1312   0.148E-01    0.286E-02
DAV:   5    -0.172832014254E+03   -0.69148E-05   -0.15798E-04  1408   0.892E-02    0.394E-02
DAV:   6    -0.172832001574E+03    0.12680E-04   -0.12253E-04  1376   0.907E-02    0.156E-02
DAV:   7    -0.172832000169E+03    0.14051E-05   -0.10796E-05   536   0.368E-02
 122 F= -.17283200E+03 E0= -.17276285E+03  d E =-.443297E-04
 trial-energy change:   -0.000044  1 .order   -0.000046   -0.000094    0.000001
 step:   1.0211(harm=  1.0211)  dis= 0.00098  next Energy=  -172.832002 (dE=-0.463E-04)
 bond charge predicted
       N       E                     dE             d eps       ncg     rms          rms(c)
DAV:   1    -0.172831999347E+03    0.22270E-05   -0.66779E-06   444   0.270E-02    0.558E-03
DAV:   2    -0.172832002337E+03   -0.29900E-05   -0.25626E-05   648   0.417E-02
 123 F= -.17283200E+03 E0= -.17276283E+03  d E =-.464979E-04
 curvature:  -1.17 expect dE=-0.856E-04 dE for cont linesearch -0.299E-05
 trial: gam= 0.23026 g(F)=  0.468E-04 g(S)=  0.262E-04 ort = 0.230E-04 (trialstep = 0.103E+01)
 search vector abs. value=  0.946E-04
 reached required accuracy - stopping structural energy minimisation
