<?xml version="1.0" encoding="ISO-8859-1"?>
<modeling>
 <generator>
  <i name="program" type="string">vasp </i>
  <i name="version" type="string">5.4.4.18Apr17-6-g9f103f2a35  </i>
  <i name="subversion" type="string">(build Jul 11 2019 11:52:51) complex            parallel </i>
  <i name="platform" type="string">LinuxIFC </i>
  <i name="date" type="string">2023 11 29 </i>
  <i name="time" type="string">17:16:29 </i>
 </generator>
 <incar>
  <i type="int" name="ISTART">     0</i>
  <i type="string" name="PREC">normal</i>
  <i type="int" name="IBRION">     2</i>
  <i name="EDIFF">      0.00001000</i>
  <i name="EDIFFG">     -0.01000000</i>
  <i type="int" name="NSW">   500</i>
  <i type="int" name="ISIF">     3</i>
  <i name="POTIM">      0.50000000</i>
  <i type="int" name="ISMEAR">     0</i>
  <i name="SIGMA">      0.10000000</i>
  <i name="PSTRESS">      0.00000000</i>
  <i type="logical" name="LWAVE"> F  </i>
  <i type="logical" name="LCHARG"> F  </i>
  <v type="int" name="KPOINT_BSE">    -1     0     0     0</v>
 </incar>
 <structure name="primitive_cell" >
  <crystal>
   <varray name="basis" >
    <v>       5.86174600       0.00000000       0.00000000 </v>
    <v>       0.00000000       5.86174600       0.00000000 </v>
    <v>       0.00000000       0.00000000       7.53991800 </v>
   </varray>
   <i name="volume">    259.07208139 </i>
   <varray name="rec_basis" >
    <v>       0.17059763       0.00000000       0.00000000 </v>
    <v>       0.00000000       0.17059763       0.00000000 </v>
    <v>       0.00000000       0.00000000       0.13262744 </v>
   </varray>
  </crystal>
  <varray name="positions" >
   <v>       0.00000000       0.00000000       0.33705500 </v>
   <v>       0.00000000       0.00000000       0.00240000 </v>
   <v>       0.17088300      -0.20063300      -0.39092800 </v>
   <v>      -0.17088300       0.20063300      -0.39092800 </v>
   <v>       0.20063300       0.17088300      -0.39092800 </v>
   <v>      -0.20063300      -0.17088300      -0.39092800 </v>
   <v>       0.40138800       0.16730200       0.29247500 </v>
   <v>      -0.40138800      -0.16730200       0.29247500 </v>
   <v>      -0.16730200       0.40138800       0.29247500 </v>
   <v>       0.16730200      -0.40138800       0.29247500 </v>
   <v>       0.39269400      -0.30722100       0.45030500 </v>
   <v>      -0.39269400       0.30722100       0.45030500 </v>
   <v>       0.30722100       0.39269400       0.45030500 </v>
   <v>      -0.30722100      -0.39269400       0.45030500 </v>
   <v>       0.00000000      -0.50000000       0.07111700 </v>
   <v>      -0.50000000       0.00000000       0.07111700 </v>
   <v>       0.00000000      -0.50000000      -0.22399200 </v>
   <v>      -0.50000000       0.00000000      -0.22399200 </v>
   <v>      -0.50000000      -0.50000000       0.00414100 </v>
   <v>      -0.50000000      -0.50000000      -0.27696100 </v>
  </varray>
 </structure>
 <varray name="primitive_index" >
  <v type="int" >        1 </v>
  <v type="int" >       17 </v>
  <v type="int" >        2 </v>
  <v type="int" >        3 </v>
  <v type="int" >        4 </v>
  <v type="int" >        5 </v>
  <v type="int" >       13 </v>
  <v type="int" >       14 </v>
  <v type="int" >       15 </v>
  <v type="int" >       16 </v>
  <v type="int" >        6 </v>
  <v type="int" >        7 </v>
  <v type="int" >        8 </v>
  <v type="int" >        9 </v>
  <v type="int" >       11 </v>
  <v type="int" >       12 </v>
  <v type="int" >       19 </v>
  <v type="int" >       20 </v>
  <v type="int" >       10 </v>
  <v type="int" >       18 </v>
 </varray>
 <kpoints>
  <generation param="Gamma">
   <v type="int" name="divisions">       2        2        2 </v>
   <v name="usershift">      0.00000000       0.00000000       0.00000000 </v>
   <v name="genvec1">      0.50000000       0.00000000       0.00000000 </v>
   <v name="genvec2">      0.00000000       0.50000000       0.00000000 </v>
   <v name="genvec3">      0.00000000       0.00000000       0.50000000 </v>
   <v name="shift">      0.00000000       0.00000000       0.00000000 </v>
  </generation>
  <varray name="kpointlist" >
   <v>       0.00000000       0.00000000       0.00000000 </v>
   <v>       0.50000000       0.00000000       0.00000000 </v>
   <v>       0.50000000       0.50000000       0.00000000 </v>
   <v>       0.00000000       0.00000000       0.50000000 </v>
   <v>       0.50000000       0.00000000       0.50000000 </v>
   <v>       0.50000000       0.50000000       0.50000000 </v>
  </varray>
  <varray name="weights" >
   <v>       0.12500000 </v>
   <v>       0.25000000 </v>
   <v>       0.12500000 </v>
   <v>       0.12500000 </v>
   <v>       0.25000000 </v>
   <v>       0.12500000 </v>
  </varray>
 </kpoints>
 <parameters>
  <separator name="general" >
   <i type="string" name="SYSTEM">unknown system</i>
   <i type="logical" name="LCOMPAT"> F  </i>
  </separator>
  <separator name="electronic" >
   <i type="string" name="PREC">normal</i>
   <i name="ENMAX">    267.88200000</i>
   <i name="ENAUG">    511.36800000</i>
   <i name="EDIFF">      0.00001000</i>
   <i type="int" name="IALGO">    38</i>
   <i type="int" name="IWAVPR">    11</i>
   <i type="int" name="NBANDS">    68</i>
   <i name="NELECT">    109.00000000</i>
   <i type="int" name="TURBO">     0</i>
   <i type="int" name="IRESTART">     0</i>
   <i type="int" name="NREBOOT">     0</i>
   <i type="int" name="NMIN">     0</i>
   <i name="EREF">      0.00000000</i>
   <separator name="electronic smearing" >
    <i type="int" name="ISMEAR">     0</i>
    <i name="SIGMA">      0.10000000</i>
    <i name="KSPACING">      0.50000000</i>
    <i type="logical" name="KGAMMA"> T  </i>
   </separator>
   <separator name="electronic projectors" >
    <i type="logical" name="LREAL"> F  </i>
    <v name="ROPT">      0.00000000      0.00000000</v>
    <i type="int" name="LMAXPAW">  -100</i>
    <i type="int" name="LMAXMIX">     2</i>
    <i type="logical" name="NLSPLINE"> F  </i>
   </separator>
   <separator name="electronic startup" >
    <i type="int" name="ISTART">     0</i>
    <i type="int" name="ICHARG">     2</i>
    <i type="int" name="INIWAV">     1</i>
   </separator>
   <separator name="electronic spin" >
    <i type="int" name="ISPIN">     1</i>
    <i type="logical" name="LNONCOLLINEAR"> F  </i>
    <v name="MAGMOM">      1.00000000      1.00000000      1.00000000      1.00000000      1.00000000      1.00000000      1.00000000      1.00000000      1.00000000      1.00000000      1.00000000      1.00000000      1.00000000      1.00000000      1.00000000      1.00000000      1.00000000      1.00000000      1.00000000      1.00000000
</v>
    <i name="NUPDOWN">     -1.00000000</i>
    <i type="logical" name="LSORBIT"> F  </i>
    <v name="SAXIS">      0.00000000      0.00000000      1.00000000</v>
    <i type="logical" name="LSPIRAL"> F  </i>
    <v name="QSPIRAL">      0.00000000      0.00000000      0.00000000</v>
    <i type="logical" name="LZEROZ"> F  </i>
   </separator>
   <separator name="electronic exchange-correlation" >
    <i type="logical" name="LASPH"> F  </i>
    <i type="logical" name="LMETAGGA"> F  </i>
   </separator>
   <separator name="electronic convergence" >
    <i type="int" name="NELM">    60</i>
    <i type="int" name="NELMDL">    -5</i>
    <i type="int" name="NELMIN">     2</i>
    <i name="ENINI">    267.88200000</i>
    <separator name="electronic convergence detail" >
     <i type="logical" name="LDIAG"> T  </i>
     <i type="logical" name="LSUBROT"> F  </i>
     <i name="WEIMIN">      0.00100000</i>
     <i name="EBREAK">      0.00000004</i>
     <i name="DEPER">      0.30000000</i>
     <i type="int" name="NRMM">     4</i>
     <i name="TIME">      0.40000000</i>
    </separator>
   </separator>
   <separator name="electronic mixer" >
    <i name="AMIX">      0.40000000</i>
    <i name="BMIX">      1.00000000</i>
    <i name="AMIN">      0.10000000</i>
    <i name="AMIX_MAG">      1.60000000</i>
    <i name="BMIX_MAG">      1.00000000</i>
    <separator name="electronic mixer details" >
     <i type="int" name="IMIX">     4</i>
     <i type="logical" name="MIXFIRST"> F  </i>
     <i type="int" name="MAXMIX">   -45</i>
     <i name="WC">    100.00000000</i>
     <i type="int" name="INIMIX">     1</i>
     <i type="int" name="MIXPRE">     1</i>
     <i type="int" name="MREMOVE">     5</i>
    </separator>
   </separator>
   <separator name="electronic dipolcorrection" >
    <i type="logical" name="LDIPOL"> F  </i>
    <i type="logical" name="LMONO"> F  </i>
    <i type="int" name="IDIPOL">     0</i>
    <i name="EPSILON">      1.00000000</i>
    <v name="DIPOL">   -100.00000000   -100.00000000   -100.00000000</v>
    <i name="EFIELD">      0.00000000</i>
   </separator>
  </separator>
  <separator name="grids" >
   <i type="int" name="NGX">    24</i>
   <i type="int" name="NGY">    24</i>
   <i type="int" name="NGZ">    30</i>
   <i type="int" name="NGXF">    48</i>
   <i type="int" name="NGYF">    48</i>
   <i type="int" name="NGZF">    60</i>
   <i type="logical" name="ADDGRID"> F  </i>
  </separator>
  <separator name="ionic" >
   <i type="int" name="NSW">   500</i>
   <i type="int" name="IBRION">     2</i>
   <i type="int" name="MDALGO">     0</i>
   <i type="int" name="ISIF">     3</i>
   <i name="PSTRESS">      0.00000000</i>
   <i name="EDIFFG">     -0.01000000</i>
   <i type="int" name="NFREE">     1</i>
   <i name="POTIM">      0.50000000</i>
   <i name="SMASS">     -3.00000000</i>
   <i name="SCALEE">      1.00000000</i>
  </separator>
  <separator name="ionic md" >
   <i name="TEBEG">      0.00010000</i>
   <i name="TEEND">      0.00010000</i>
   <i type="int" name="NBLOCK">     1</i>
   <i type="int" name="KBLOCK">   500</i>
   <i type="int" name="NPACO">   256</i>
   <i name="APACO">     16.00000000</i>
  </separator>
  <separator name="symmetry" >
   <i type="int" name="ISYM">     2</i>
   <i name="SYMPREC">      0.00001000</i>
  </separator>
  <separator name="dos" >
   <i type="int" name="LORBIT">     0</i>
   <v name="RWIGS">     -1.00000000     -1.00000000</v>
   <i type="int" name="NEDOS">   301</i>
   <i name="EMIN">     10.00000000</i>
   <i name="EMAX">    -10.00000000</i>
   <i name="EFERMI">      0.00000000</i>
  </separator>
  <separator name="writing" >
   <i type="int" name="NWRITE">     2</i>
   <i type="logical" name="LWAVE"> F  </i>
   <i type="logical" name="LDOWNSAMPLE"> F  </i>
   <i type="logical" name="LCHARG"> F  </i>
   <i type="logical" name="LPARD"> F  </i>
   <i type="logical" name="LVTOT"> F  </i>
   <i type="logical" name="LVHAR"> F  </i>
   <i type="logical" name="LELF"> F  </i>
   <i type="logical" name="LOPTICS"> F  </i>
   <v name="STM">      0.00000000      0.00000000      0.00000000      0.00000000      0.00000000      0.00000000      0.00000000</v>
  </separator>
  <separator name="performance" >
   <i type="int" name="NPAR">     4</i>
   <i type="int" name="NSIM">     4</i>
   <i type="int" name="NBLK">    -1</i>
   <i type="logical" name="LPLANE"> T  </i>
   <i type="logical" name="LSCALAPACK"> T  </i>
   <i type="logical" name="LSCAAWARE"> F  </i>
   <i type="logical" name="LSCALU"> F  </i>
   <i type="logical" name="LASYNC"> F  </i>
   <i type="logical" name="LORBITALREAL"> F  </i>
  </separator>
  <separator name="miscellaneous" >
   <i type="int" name="IDIOT">     3</i>
   <i type="int" name="ISPECIAL">     0</i>
   <i type="logical" name="LMUSIC"> F  </i>
   <v name="POMASS">     50.94100000     55.84700000</v>
   <v name="DARWINR">      0.00000000      0.00000000</v>
   <v name="DARWINV">      1.00000000      1.00000000</v>
   <i type="logical" name="LCORR"> T  </i>
  </separator>
  <i type="logical" name="GGA_COMPAT"> T  </i>
  <i type="logical" name="LBERRY"> F  </i>
  <i type="int" name="ICORELEVEL">     0</i>
  <i type="logical" name="LDAU"> F  </i>
  <i type="int" name="I_CONSTRAINED_M">     0</i>
  <separator name="electronic exchange-correlation" >
   <i type="string" name="GGA">--</i>
   <i type="int" name="VOSKOWN">     0</i>
   <i type="logical" name="LHFCALC"> F  </i>
   <i type="string" name="PRECFOCK"></i>
   <i type="logical" name="LSYMGRAD"> F  </i>
   <i type="logical" name="LHFONE"> F  </i>
   <i type="logical" name="LRHFCALC"> F  </i>
   <i type="logical" name="LTHOMAS"> F  </i>
   <i type="logical" name="LMODELHF"> F  </i>
   <i name="ENCUT4O">     -1.00000000</i>
   <i type="int" name="EXXOEP">     0</i>
   <i type="int" name="FOURORBIT">     0</i>
   <i name="AEXX">      0.00000000</i>
   <i name="HFALPHA">      0.00000000</i>
   <i name="MCALPHA">      0.00000000</i>
   <i name="ALDAX">      1.00000000</i>
   <i name="AGGAX">      1.00000000</i>
   <i name="ALDAC">      1.00000000</i>
   <i name="AGGAC">      1.00000000</i>
   <i type="int" name="NKREDX">     1</i>
   <i type="int" name="NKREDY">     1</i>
   <i type="int" name="NKREDZ">     1</i>
   <i type="logical" name="SHIFTRED"> F  </i>
   <i type="logical" name="ODDONLY"> F  </i>
   <i type="logical" name="EVENONLY"> F  </i>
   <i type="int" name="LMAXFOCK">     0</i>
   <i type="int" name="NMAXFOCKAE">     0</i>
   <i type="logical" name="LFOCKAEDFT"> F  </i>
   <i name="HFSCREEN">      0.00000000</i>
   <i name="HFSCREENC">      0.00000000</i>
   <i type="int" name="NBANDSGWLOW">     0</i>
  </separator>
  <separator name="vdW DFT" >
   <i type="logical" name="LUSE_VDW"> F  </i>
   <i name="Zab_VDW">     -0.84910000</i>
   <i name="PARAM1">      0.12340000</i>
   <i name="PARAM2">      1.00000000</i>
   <i name="PARAM3">      0.00000000</i>
  </separator>
  <separator name="model GW" >
   <i type="int" name="MODEL_GW">     0</i>
   <i name="MODEL_EPS0">      7.77216244</i>
   <i name="MODEL_ALPHA">      1.00000000</i>
  </separator>
  <separator name="linear response parameters" >
   <i type="logical" name="LEPSILON"> F  </i>
   <i type="logical" name="LRPA"> F  </i>
   <i type="logical" name="LNABLA"> F  </i>
   <i type="logical" name="LVEL"> F  </i>
   <i type="int" name="KINTER">     0</i>
   <i name="CSHIFT">      0.10000000</i>
   <i name="OMEGAMAX">     -1.00000000</i>
   <i name="DEG_THRESHOLD">      0.00200000</i>
   <i name="RTIME">     -0.10000000</i>
   <i name="WPLASMAI">      0.00000000</i>
   <v name="DFIELD">      0.00000000      0.00000000      0.00000000</v>
   <v name="WPLASMA">      0.00000000      0.00000000      0.00000000      0.00000000      0.00000000      0.00000000      0.00000000      0.00000000      0.00000000</v>
  </separator>
  <separator name="orbital magnetization" >
   <i type="logical" name="NUCIND"> F  </i>
   <v name="MAGPOS">      0.00000000      0.00000000      0.00000000</v>
   <i type="logical" name="LNICSALL"> T  </i>
   <i type="logical" name="ORBITALMAG"> F  </i>
   <i type="logical" name="LMAGBLOCH"> F  </i>
   <i type="logical" name="LCHIMAG"> F  </i>
   <i type="logical" name="LGAUGE"> T  </i>
   <i type="int" name="MAGATOM">     0</i>
   <v name="MAGDIPOL">      0.00000000      0.00000000      0.00000000</v>
   <v name="AVECCONST">      0.00000000      0.00000000      0.00000000</v>
  </separator>
  <separator name="response functions" >
   <i type="logical" name="LADDER"> F  </i>
   <i type="logical" name="LRPAFORCE"> F  </i>
   <i type="logical" name="LFXC"> F  </i>
   <i type="logical" name="LHARTREE"> T  </i>
   <i type="int" name="IBSE">     0</i>
   <v type="int" name="KPOINT">    -1     0     0     0</v>
   <i type="logical" name="LTCTE"> F  </i>
   <i type="logical" name="LTETE"> F  </i>
   <i type="logical" name="LTRIPLET"> F  </i>
   <i type="logical" name="LFXCEPS"> F  </i>
   <i type="logical" name="LFXHEG"> F  </i>
   <i type="int" name="NATURALO">     2</i>
   <i type="logical" name="L2ORDER"> F  </i>
   <i type="logical" name="LMP2LT"> F  </i>
   <i type="logical" name="LUSEW"> F  </i>
   <i name="ENCUTGW">     -2.00000000</i>
   <i name="ENCUTGWSOFT">     -2.00000000</i>
   <i name="ENCUTLF">     -1.00000000</i>
   <i type="int" name="LMAXMP2">    -1</i>
   <i name="SCISSOR">      0.00000000</i>
   <i type="int" name="NOMEGA">     0</i>
   <i type="int" name="NOMEGAR">     0</i>
   <i type="int" name="NBANDSGW">    -1</i>
   <i type="int" name="NBANDSO">    -1</i>
   <i type="int" name="NBANDSV">    -1</i>
   <i type="int" name="NELM">     1</i>
   <i type="int" name="NELMHF">     1</i>
   <i type="int" name="DIM">     3</i>
   <i type="int" name="ANTIRES">     0</i>
   <i name="OMEGAMAX">    -30.00000000</i>
   <i name="OMEGAMIN">    -30.00000000</i>
   <i name="OMEGATL">   -200.00000000</i>
   <i type="int" name="OMEGAGRID">   140</i>
   <i name="CSHIFT">     -0.10000000</i>
   <i type="logical" name="SELFENERGY"> F  </i>
   <i type="logical" name="LSPECTRAL"> F  </i>
   <i type="logical" name="LSPECTRALGW"> F  </i>
   <i type="logical" name="LSINGLES"> F  </i>
   <i type="logical" name="LFERMIGW"> F  </i>
   <i type="logical" name="ODDONLYGW"> F  </i>
   <i type="logical" name="EVENONLYGW"> F  </i>
   <i type="int" name="NKREDLFX">     1</i>
   <i type="int" name="NKREDLFY">     1</i>
   <i type="int" name="NKREDLFZ">     1</i>
   <i type="int" name="MAXMEM">  2800</i>
   <i type="int" name="TELESCOPE">     0</i>
   <i type="int" name="TAUPAR">     1</i>
   <i type="int" name="OMEGAPAR">    -1</i>
   <i name="LAMBDA">      1.00000000</i>
  </separator>
  <separator name="External order field" >
   <i name="OFIELD_KAPPA">      0.00000000</i>
   <v name="OFIELD_K">      0.00000000      0.00000000      0.00000000</v>
   <i name="OFIELD_Q6_NEAR">      0.00000000</i>
   <i name="OFIELD_Q6_FAR">      0.00000000</i>
   <i name="OFIELD_A">      0.00000000</i>
  </separator>
 </parameters>
 <atominfo>
  <atoms>      20 </atoms>
  <types>       2 </types>
  <array name="atoms" >
   <dimension dim="1">ion</dimension>
   <field type="string">element</field>
   <field type="int">atomtype</field>
   <set>
    <rc><c>V </c><c>   1</c></rc>
    <rc><c>V </c><c>   1</c></rc>
    <rc><c>V </c><c>   1</c></rc>
    <rc><c>V </c><c>   1</c></rc>
    <rc><c>V </c><c>   1</c></rc>
    <rc><c>V </c><c>   1</c></rc>
    <rc><c>V </c><c>   1</c></rc>
    <rc><c>V </c><c>   1</c></rc>
    <rc><c>V </c><c>   1</c></rc>
    <rc><c>V </c><c>   1</c></rc>
    <rc><c>V </c><c>   1</c></rc>
    <rc><c>V </c><c>   1</c></rc>
    <rc><c>V </c><c>   1</c></rc>
    <rc><c>V </c><c>   1</c></rc>
    <rc><c>V </c><c>   1</c></rc>
    <rc><c>V </c><c>   1</c></rc>
    <rc><c>V </c><c>   1</c></rc>
    <rc><c>Fe</c><c>   2</c></rc>
    <rc><c>Fe</c><c>   2</c></rc>
    <rc><c>Fe</c><c>   2</c></rc>
   </set>
  </array>
  <array name="atomtypes" >
   <dimension dim="1">type</dimension>
   <field type="int">atomspertype</field>
   <field type="string">element</field>
   <field>mass</field>
   <field>valence</field>
   <field type="string">pseudopotential</field>
   <set>
    <rc><c>  17</c><c>V </c><c>     50.94100000</c><c>      5.00000000</c><c>  PAW_PBE V 08Apr2002                   </c></rc>
    <rc><c>   3</c><c>Fe</c><c>     55.84700000</c><c>      8.00000000</c><c>  PAW_PBE Fe 06Sep2000                  </c></rc>
   </set>
  </array>
 </atominfo>
 <structure name="initialpos" >
  <crystal>
   <varray name="basis" >
    <v>       5.86174600       0.00000000       0.00000000 </v>
    <v>       0.00000000       5.86174600       0.00000000 </v>
    <v>       0.00000000       0.00000000       7.53991800 </v>
   </varray>
   <i name="volume">    259.07208139 </i>
   <varray name="rec_basis" >
    <v>       0.17059763       0.00000000       0.00000000 </v>
    <v>       0.00000000       0.17059763       0.00000000 </v>
    <v>       0.00000000       0.00000000       0.13262744 </v>
   </varray>
  </crystal>
  <varray name="positions" >
   <v>       0.00000000       0.00000000       0.33705500 </v>
   <v>       0.17088300       0.79936700       0.60907200 </v>
   <v>       0.82911700       0.20063300       0.60907200 </v>
   <v>       0.20063300       0.17088300       0.60907200 </v>
   <v>       0.79936700       0.82911700       0.60907200 </v>
   <v>       0.39269400       0.69277900       0.45030500 </v>
   <v>       0.60730600       0.30722100       0.45030500 </v>
   <v>       0.30722100       0.39269400       0.45030500 </v>
   <v>       0.69277900       0.60730600       0.45030500 </v>
   <v>       0.50000000       0.50000000       0.00414100 </v>
   <v>       0.00000000       0.50000000       0.07111700 </v>
   <v>       0.50000000       0.00000000       0.07111700 </v>
   <v>       0.40138800       0.16730200       0.29247500 </v>
   <v>       0.59861200       0.83269800       0.29247500 </v>
   <v>       0.83269800       0.40138800       0.29247500 </v>
   <v>       0.16730200       0.59861200       0.29247500 </v>
   <v>       0.00000000       0.00000000       0.00240000 </v>
   <v>       0.50000000       0.50000000       0.72303900 </v>
   <v>       0.00000000       0.50000000       0.77600800 </v>
   <v>       0.50000000       0.00000000       0.77600800 </v>
  </varray>
 </structure>
 <calculation>
  <scstep>
   <time name="dav">    0.51    0.51</time>
   <time name="total">    0.53    0.53</time>
   <energy>
    <i name="alphaZ">    552.45257271 </i>
    <i name="ewald">  -4650.25407772 </i>
    <i name="hartreedc">  -1248.05462375 </i>
    <i name="XCdc">   -770.87658849 </i>
    <i name="pawpsdc">   5171.05454107 </i>
    <i name="pawaedc">  -4356.08836938 </i>
    <i name="eentropy">     -0.07820496 </i>
    <i name="bandstr">   1287.20617830 </i>
    <i name="atom">   4687.48422623 </i>
    <i name="e_fr_energy">    672.84565401 </i>
    <i name="e_wo_entrp">    672.92385897 </i>
    <i name="e_0_energy">    672.88475649 </i>
   </energy>
  </scstep>
  <scstep>
   <time name="dav">    0.48    0.48</time>
   <time name="total">    0.48    0.48</time>
   <energy>
    <i name="e_fr_energy">    -69.01533982 </i>
    <i name="e_wo_entrp">    -68.95483159 </i>
    <i name="e_0_energy">    -68.98508571 </i>
   </energy>
  </scstep>
  <scstep>
   <time name="dav">    0.70    0.70</time>
   <time name="total">    0.70    0.70</time>
   <energy>
    <i name="e_fr_energy">   -191.36589950 </i>
    <i name="e_wo_entrp">   -191.27064548 </i>
    <i name="e_0_energy">   -191.31827249 </i>
   </energy>
  </scstep>
  <scstep>
   <time name="dav">    0.68    0.68</time>
   <time name="total">    0.68    0.68</time>
   <energy>
    <i name="e_fr_energy">   -204.15585323 </i>
    <i name="e_wo_entrp">   -204.03253852 </i>
    <i name="e_0_energy">   -204.09419588 </i>
   </energy>
  </scstep>
  <scstep>
   <time name="dav">    0.73    0.73</time>
   <time name="total">    0.74    0.75</time>
   <energy>
    <i name="e_fr_energy">   -205.29506503 </i>
    <i name="e_wo_entrp">   -205.16189191 </i>
    <i name="e_0_energy">   -205.22847847 </i>
   </energy>
  </scstep>
  <scstep>
   <time name="dav">    0.77    0.77</time>
   <time name="total">    0.82    0.82</time>
   <energy>
    <i name="e_fr_energy">   -696.57459066 </i>
    <i name="e_wo_entrp">   -696.53251097 </i>
    <i name="e_0_energy">   -696.55355081 </i>
   </energy>
  </scstep>
  <scstep>
   <time name="dav">    0.62    0.63</time>
   <time name="total">    0.67    0.67</time>
   <energy>
    <i name="e_fr_energy">   -546.36148528 </i>
    <i name="e_wo_entrp">   -546.30404532 </i>
    <i name="e_0_energy">   -546.33276530 </i>
   </energy>
  </scstep>
  <scstep>
   <time name="dav">    0.76    0.76</time>
   <time name="total">    0.80    0.80</time>
   <energy>
    <i name="e_fr_energy">   -181.39764185 </i>
    <i name="e_wo_entrp">   -181.34638409 </i>
    <i name="e_0_energy">   -181.37201297 </i>
   </energy>
  </scstep>
  <scstep>
   <time name="dav">    0.69    0.69</time>
   <time name="total">    0.73    0.73</time>
   <energy>
    <i name="e_fr_energy">   -149.05517865 </i>
    <i name="e_wo_entrp">   -148.91260538 </i>
    <i name="e_0_energy">   -148.98389202 </i>
   </energy>
  </scstep>
  <scstep>
   <time name="dav">    0.71    0.71</time>
   <time name="total">    0.75    0.75</time>
   <energy>
    <i name="e_fr_energy">   -146.16043082 </i>
    <i name="e_wo_entrp">   -146.03062980 </i>
    <i name="e_0_energy">   -146.09553031 </i>
   </energy>
  </scstep>
  <scstep>
   <time name="dav">    0.63    0.63</time>
   <time name="total">    0.67    0.67</time>
   <energy>
    <i name="e_fr_energy">   -146.69624387 </i>
    <i name="e_wo_entrp">   -146.56435705 </i>
    <i name="e_0_energy">   -146.63030046 </i>
   </energy>
  </scstep>
  <scstep>
   <time name="dav">    0.78    0.78</time>
   <time name="total">    0.82    0.82</time>
   <energy>
    <i name="e_fr_energy">   -163.14446331 </i>
    <i name="e_wo_entrp">   -163.00648926 </i>
    <i name="e_0_energy">   -163.07547629 </i>
   </energy>
  </scstep>
  <scstep>
   <time name="dav">    0.76    0.77</time>
   <time name="total">    0.80    0.80</time>
   <energy>
    <i name="e_fr_energy">   -156.11796645 </i>
    <i name="e_wo_entrp">   -155.96514677 </i>
    <i name="e_0_energy">   -156.04155661 </i>
   </energy>
  </scstep>
  <scstep>
   <time name="dav">    0.72    0.72</time>
   <time name="total">    0.76    0.76</time>
   <energy>
    <i name="e_fr_energy">   -158.36056761 </i>
    <i name="e_wo_entrp">   -158.21046698 </i>
    <i name="e_0_energy">   -158.28551729 </i>
   </energy>
  </scstep>
  <scstep>
   <time name="dav">    0.66    0.66</time>
   <time name="total">    0.70    0.70</time>
   <energy>
    <i name="e_fr_energy">   -157.96869388 </i>
    <i name="e_wo_entrp">   -157.81686397 </i>
    <i name="e_0_energy">   -157.89277892 </i>
   </energy>
  </scstep>
  <scstep>
   <time name="dav">    0.82    0.82</time>
   <time name="total">    0.86    0.86</time>
   <energy>
    <i name="e_fr_energy">   -157.13074965 </i>
    <i name="e_wo_entrp">   -157.04439214 </i>
    <i name="e_0_energy">   -157.08757090 </i>
   </energy>
  </scstep>
  <scstep>
   <time name="dav">    0.79    0.79</time>
   <time name="total">    0.82    0.83</time>
   <energy>
    <i name="e_fr_energy">   -161.91110716 </i>
    <i name="e_wo_entrp">   -161.80486508 </i>
    <i name="e_0_energy">   -161.85798612 </i>
   </energy>
  </scstep>
  <scstep>
   <time name="dav">    0.81    0.81</time>
   <time name="total">    0.85    0.85</time>
   <energy>
    <i name="e_fr_energy">   -174.70289446 </i>
    <i name="e_wo_entrp">   -174.57015799 </i>
    <i name="e_0_energy">   -174.63652623 </i>
   </energy>
  </scstep>
  <scstep>
   <time name="dav">    0.72    0.72</time>
   <time name="total">    0.76    0.76</time>
   <energy>
    <i name="e_fr_energy">   -165.32872655 </i>
    <i name="e_wo_entrp">   -165.22141474 </i>
    <i name="e_0_energy">   -165.27507064 </i>
   </energy>
  </scstep>
  <scstep>
   <time name="dav">    0.75    0.75</time>
   <time name="total">    0.79    0.79</time>
   <energy>
    <i name="e_fr_energy">   -162.47724575 </i>
    <i name="e_wo_entrp">   -162.36885038 </i>
    <i name="e_0_energy">   -162.42304807 </i>
   </energy>
  </scstep>
  <scstep>
   <time name="dav">    0.69    0.69</time>
   <time name="total">    0.74    0.74</time>
   <energy>
    <i name="e_fr_energy">   -153.16467878 </i>
    <i name="e_wo_entrp">   -153.05482798 </i>
    <i name="e_0_energy">   -153.10975338 </i>
   </energy>
  </scstep>
  <scstep>
   <time name="dav">    0.69    0.69</time>
   <time name="total">    0.73    0.73</time>
   <energy>
    <i name="e_fr_energy">   -144.37483068 </i>
    <i name="e_wo_entrp">   -144.25560099 </i>
    <i name="e_0_energy">   -144.31521583 </i>
   </energy>
  </scstep>
  <scstep>
   <time name="dav">    0.65    0.65</time>
   <time name="total">    0.69    0.69</time>
   <energy>
    <i name="e_fr_energy">   -143.10036324 </i>
    <i name="e_wo_entrp">   -142.98503310 </i>
    <i name="e_0_energy">   -143.04269817 </i>
   </energy>
  </scstep>
  <scstep>
   <time name="dav">    0.70    0.70</time>
   <time name="total">    0.74    0.74</time>
   <energy>
    <i name="e_fr_energy">   -141.28413260 </i>
    <i name="e_wo_entrp">   -141.17039384 </i>
    <i name="e_0_energy">   -141.22726322 </i>
   </energy>
  </scstep>
  <scstep>
   <time name="dav">    0.69    0.69</time>
   <time name="total">    0.73    0.73</time>
   <energy>
    <i name="e_fr_energy">   -138.75713684 </i>
    <i name="e_wo_entrp">   -138.64339573 </i>
    <i name="e_0_energy">   -138.70026629 </i>
   </energy>
  </scstep>
  <scstep>
   <time name="dav">    0.67    0.67</time>
   <time name="total">    0.71    0.71</time>
   <energy>
    <i name="e_fr_energy">   -137.21051990 </i>
    <i name="e_wo_entrp">   -137.09094937 </i>
    <i name="e_0_energy">   -137.15073463 </i>
   </energy>
  </scstep>
  <scstep>
   <time name="dav">    0.59    0.59</time>
   <time name="total">    0.63    0.63</time>
   <energy>
    <i name="e_fr_energy">   -137.14086778 </i>
    <i name="e_wo_entrp">   -137.02656114 </i>
    <i name="e_0_energy">   -137.08371446 </i>
   </energy>
  </scstep>
  <scstep>
   <time name="dav">    0.68    0.68</time>
   <time name="total">    0.72    0.73</time>
   <energy>
    <i name="e_fr_energy">   -136.95795332 </i>
    <i name="e_wo_entrp">   -136.84324636 </i>
    <i name="e_0_energy">   -136.90059984 </i>
   </energy>
  </scstep>
  <scstep>
   <time name="dav">    0.68    0.69</time>
   <time name="total">    0.72    0.73</time>
   <energy>
    <i name="e_fr_energy">   -136.90537245 </i>
    <i name="e_wo_entrp">   -136.79000260 </i>
    <i name="e_0_energy">   -136.84768752 </i>
   </energy>
  </scstep>
  <scstep>
   <time name="dav">    0.66    0.67</time>
   <time name="total">    0.70    0.71</time>
   <energy>
    <i name="e_fr_energy">   -136.89837392 </i>
    <i name="e_wo_entrp">   -136.78204046 </i>
    <i name="e_0_energy">   -136.84020719 </i>
   </energy>
  </scstep>
  <scstep>
   <time name="dav">    0.68    0.68</time>
   <time name="total">    0.72    0.72</time>
   <energy>
    <i name="e_fr_energy">   -136.90070035 </i>
    <i name="e_wo_entrp">   -136.78426118 </i>
    <i name="e_0_energy">   -136.84248077 </i>
   </energy>
  </scstep>
  <scstep>
   <time name="dav">    0.76    0.76</time>
   <time name="total">    0.80    0.80</time>
   <energy>
    <i name="e_fr_energy">   -136.89617701 </i>
    <i name="e_wo_entrp">   -136.78038415 </i>
    <i name="e_0_energy">   -136.83828058 </i>
   </energy>
  </scstep>
  <scstep>
   <time name="dav">    0.80    0.80</time>
   <time name="total">    0.84    0.84</time>
   <energy>
    <i name="e_fr_energy">   -136.89516580 </i>
    <i name="e_wo_entrp">   -136.78005877 </i>
    <i name="e_0_energy">   -136.83761228 </i>
   </energy>
  </scstep>
  <scstep>
   <time name="dav">    0.72    0.73</time>
   <time name="total">    0.76    0.77</time>
   <energy>
    <i name="e_fr_energy">   -136.89531235 </i>
    <i name="e_wo_entrp">   -136.77982217 </i>
    <i name="e_0_energy">   -136.83756726 </i>
   </energy>
  </scstep>
  <scstep>
   <time name="dav">    0.62    0.62</time>
   <time name="total">    0.66    0.66</time>
   <energy>
    <i name="e_fr_energy">   -136.89535912 </i>
    <i name="e_wo_entrp">   -136.77984641 </i>
    <i name="e_0_energy">   -136.83760276 </i>
   </energy>
  </scstep>
  <scstep>
   <time name="dav">    0.76    0.76</time>
   <time name="total">    0.80    0.80</time>
   <energy>
    <i name="e_fr_energy">   -136.89483781 </i>
    <i name="e_wo_entrp">   -136.77967175 </i>
    <i name="e_0_energy">   -136.83725478 </i>
   </energy>
  </scstep>
  <scstep>
   <time name="dav">    0.55    0.55</time>
   <time name="total">    0.59    0.59</time>
   <energy>
    <i name="e_fr_energy">   -136.89464696 </i>
    <i name="e_wo_entrp">   -136.77949393 </i>
    <i name="e_0_energy">   -136.83707044 </i>
   </energy>
  </scstep>
  <scstep>
   <time name="dav">    0.62    0.62</time>
   <time name="total">    0.64    0.64</time>
   <energy>
    <i name="alphaZ">    552.45257271 </i>
    <i name="ewald">  -4650.25407772 </i>
    <i name="hartreedc">  -1189.96100700 </i>
    <i name="XCdc">   -769.82859595 </i>
    <i name="pawpsdc">   9984.92706117 </i>
    <i name="pawaedc">  -9189.24291953 </i>
    <i name="eentropy">     -0.11512346 </i>
    <i name="bandstr">    437.64321396 </i>
    <i name="atom">   4687.48422623 </i>
    <i name="e_fr_energy">   -136.89464960 </i>
    <i name="e_wo_entrp">   -136.77952614 </i>
    <i name="e_0_energy">   -136.83708787 </i>
   </energy>
  </scstep>
  <structure>
   <crystal>
    <varray name="basis" >
     <v>       5.86174600       0.00000000       0.00000000 </v>
     <v>       0.00000000       5.86174600       0.00000000 </v>
     <v>       0.00000000       0.00000000       7.53991800 </v>
    </varray>
    <i name="volume">    259.07208139 </i>
    <varray name="rec_basis" >
     <v>       0.17059763       0.00000000       0.00000000 </v>
     <v>       0.00000000       0.17059763       0.00000000 </v>
     <v>       0.00000000       0.00000000       0.13262744 </v>
    </varray>
   </crystal>
   <varray name="positions" >
    <v>       0.00000000       0.00000000       0.33705500 </v>
    <v>       0.17088300       0.79936700       0.60907200 </v>
    <v>       0.82911700       0.20063300       0.60907200 </v>
    <v>       0.20063300       0.17088300       0.60907200 </v>
    <v>       0.79936700       0.82911700       0.60907200 </v>
    <v>       0.39269400       0.69277900       0.45030500 </v>
    <v>       0.60730600       0.30722100       0.45030500 </v>
    <v>       0.30722100       0.39269400       0.45030500 </v>
    <v>       0.69277900       0.60730600       0.45030500 </v>
    <v>       0.50000000       0.50000000       0.00414100 </v>
    <v>       0.00000000       0.50000000       0.07111700 </v>
    <v>       0.50000000       0.00000000       0.07111700 </v>
    <v>       0.40138800       0.16730200       0.29247500 </v>
    <v>       0.59861200       0.83269800       0.29247500 </v>
    <v>       0.83269800       0.40138800       0.29247500 </v>
    <v>       0.16730200       0.59861200       0.29247500 </v>
    <v>       0.00000000       0.00000000       0.00240000 </v>
    <v>       0.50000000       0.50000000       0.72303900 </v>
    <v>       0.00000000       0.50000000       0.77600800 </v>
    <v>       0.50000000       0.00000000       0.77600800 </v>
   </varray>
  </structure>
  <varray name="forces" >
   <v>       0.00000000      -0.00000000      -3.02857712 </v>
   <v>      -1.63888703      -0.95139024       4.09472142 </v>
   <v>       1.63888703       0.95139024       4.09472142 </v>
   <v>       0.95139024      -1.63888703       4.09472142 </v>
   <v>      -0.95139024       1.63888703       4.09472142 </v>
   <v>      -0.47760646       6.98846003       1.96325257 </v>
   <v>       0.47760646      -6.98846003       1.96325257 </v>
   <v>      -6.98846003      -0.47760646       1.96325257 </v>
   <v>       6.98846003       0.47760646       1.96325257 </v>
   <v>       0.00000000      -0.00000000      -0.50076033 </v>
   <v>       0.00000000      -0.00000000      -3.91865925 </v>
   <v>       0.00000000      -0.00000000      -3.91865925 </v>
   <v>      -3.56548191      -1.66811514      -4.22513832 </v>
   <v>       3.56548191       1.66811514      -4.22513832 </v>
   <v>       1.66811514      -3.56548191      -4.22513832 </v>
   <v>      -1.66811514       3.56548191      -4.22513832 </v>
   <v>       0.00000000      -0.00000000      -0.68772604 </v>
   <v>       0.00000000      -0.00000000       4.88645000 </v>
   <v>       0.00000000      -0.00000000      -0.08170535 </v>
   <v>       0.00000000      -0.00000000      -0.08170535 </v>
  </varray>
  <varray name="stress" >
   <v>     339.47696850       0.00000003       0.00000000 </v>
   <v>      -0.00000003     339.47696850       0.00000000 </v>
   <v>       0.00000000      -0.00000000     301.14468485 </v>
  </varray>
  <energy>
   <i name="e_fr_energy">   -136.89464960 </i>
   <i name="e_wo_entrp">   -136.83708787 </i>
   <i name="e_0_energy">     -0.11512346 </i>
  </energy>
  <time name="totalsc">   28.75   28.77</time>
 </calculation>
 <calculation>
  <scstep>
   <time name="dav">    0.49    0.49</time>
   <time name="total">    0.53    0.53</time>
   <energy>
    <i name="alphaZ">    385.52790621 </i>
    <i name="ewald">  -4395.50576138 </i>
    <i name="hartreedc">   -866.75097189 </i>
    <i name="XCdc">   -785.95681279 </i>
    <i name="pawpsdc">   9979.28988322 </i>
    <i name="pawaedc">  -9183.57921088 </i>
    <i name="eentropy">     -0.16271828 </i>
    <i name="bandstr">    -37.76929459 </i>
    <i name="atom">   4687.48422623 </i>
    <i name="e_fr_energy">   -217.42275415 </i>
    <i name="e_wo_entrp">   -217.26003587 </i>
    <i name="e_0_energy">   -217.34139501 </i>
   </energy>
  </scstep>
  <scstep>
   <time name="dav">    0.74    0.74</time>
   <time name="total">    0.78    0.78</time>
   <energy>
    <i name="e_fr_energy">   -711.75749918 </i>
    <i name="e_wo_entrp">   -711.70389991 </i>
    <i name="e_0_energy">   -711.73069955 </i>
   </energy>
  </scstep>
  <scstep>
   <time name="dav">    0.48    0.48</time>
   <time name="total">    0.52    0.52</time>
   <energy>
    <i name="e_fr_energy">   -268.60894139 </i>
    <i name="e_wo_entrp">   -268.50096049 </i>
    <i name="e_0_energy">   -268.55495094 </i>
   </energy>
  </scstep>
  <scstep>
   <time name="dav">    0.83    0.83</time>
   <time name="total">    0.87    0.87</time>
   <energy>
    <i name="e_fr_energy">   -182.14668618 </i>
    <i name="e_wo_entrp">   -182.02017218 </i>
    <i name="e_0_energy">   -182.08342918 </i>
   </energy>
  </scstep>
  <scstep>
   <time name="dav">    0.77    0.77</time>
   <time name="total">    0.81    0.81</time>
   <energy>
    <i name="e_fr_energy">   -180.87708505 </i>
    <i name="e_wo_entrp">   -180.77408075 </i>
    <i name="e_0_energy">   -180.82558290 </i>
   </energy>
  </scstep>
  <scstep>
   <time name="dav">    0.87    0.87</time>
   <time name="total">    0.91    0.91</time>
   <energy>
    <i name="e_fr_energy">   -164.69499987 </i>
    <i name="e_wo_entrp">   -164.56250481 </i>
    <i name="e_0_energy">   -164.62875234 </i>
   </energy>
  </scstep>
  <scstep>
   <time name="dav">    0.79    0.79</time>
   <time name="total">    0.83    0.83</time>
   <energy>
    <i name="e_fr_energy">   -164.60032057 </i>
    <i name="e_wo_entrp">   -164.47406681 </i>
    <i name="e_0_energy">   -164.53719369 </i>
   </energy>
  </scstep>
  <scstep>
   <time name="dav">    0.77    0.77</time>
   <time name="total">    0.80    0.81</time>
   <energy>
    <i name="e_fr_energy">   -160.94922837 </i>
    <i name="e_wo_entrp">   -160.78996329 </i>
    <i name="e_0_energy">   -160.86959583 </i>
   </energy>
  </scstep>
  <scstep>
   <time name="dav">    0.77    0.77</time>
   <time name="total">    0.81    0.81</time>
   <energy>
    <i name="e_fr_energy">   -156.49885410 </i>
    <i name="e_wo_entrp">   -156.32414910 </i>
    <i name="e_0_energy">   -156.41150160 </i>
   </energy>
  </scstep>
  <scstep>
   <time name="dav">    0.80    0.80</time>
   <time name="total">    0.84    0.84</time>
   <energy>
    <i name="e_fr_energy">   -155.41139252 </i>
    <i name="e_wo_entrp">   -155.25068156 </i>
    <i name="e_0_energy">   -155.33103704 </i>
   </energy>
  </scstep>
  <scstep>
   <time name="dav">    0.79    0.79</time>
   <time name="total">    0.83    0.83</time>
   <energy>
    <i name="e_fr_energy">   -158.55598469 </i>
    <i name="e_wo_entrp">   -158.40348220 </i>
    <i name="e_0_energy">   -158.47973345 </i>
   </energy>
  </scstep>
  <scstep>
   <time name="dav">    0.80    0.80</time>
   <time name="total">    0.84    0.84</time>
   <energy>
    <i name="e_fr_energy">   -153.99668206 </i>
    <i name="e_wo_entrp">   -153.82961654 </i>
    <i name="e_0_energy">   -153.91314930 </i>
   </energy>
  </scstep>
  <scstep>
   <time name="dav">    0.77    0.77</time>
   <time name="total">    0.81    0.81</time>
   <energy>
    <i name="e_fr_energy">   -155.16273054 </i>
    <i name="e_wo_entrp">   -154.98131320 </i>
    <i name="e_0_energy">   -155.07202187 </i>
   </energy>
  </scstep>
  <scstep>
   <time name="dav">    0.72    0.72</time>
   <time name="total">    0.76    0.76</time>
   <energy>
    <i name="e_fr_energy">   -156.17381376 </i>
    <i name="e_wo_entrp">   -156.00549521 </i>
    <i name="e_0_energy">   -156.08965448 </i>
   </energy>
  </scstep>
  <scstep>
   <time name="dav">    0.96    0.96</time>
   <time name="total">    1.00    1.00</time>
   <energy>
    <i name="e_fr_energy">   -156.41043625 </i>
    <i name="e_wo_entrp">   -156.22142022 </i>
    <i name="e_0_energy">   -156.31592824 </i>
   </energy>
  </scstep>
  <scstep>
   <time name="dav">    0.74    0.74</time>
   <time name="total">    0.78    0.78</time>
   <energy>
    <i name="e_fr_energy">   -153.16485997 </i>
    <i name="e_wo_entrp">   -152.97040365 </i>
    <i name="e_0_energy">   -153.06763181 </i>
   </energy>
  </scstep>
  <scstep>
   <time name="dav">    0.80    0.80</time>
   <time name="total">    0.84    0.84</time>
   <energy>
    <i name="e_fr_energy">   -151.80966258 </i>
    <i name="e_wo_entrp">   -151.62477695 </i>
    <i name="e_0_energy">   -151.71721976 </i>
   </energy>
  </scstep>
  <scstep>
   <time name="dav">    0.70    0.70</time>
   <time name="total">    0.74    0.74</time>
   <energy>
    <i name="e_fr_energy">   -151.81876387 </i>
    <i name="e_wo_entrp">   -151.63776715 </i>
    <i name="e_0_energy">   -151.72826551 </i>
   </energy>
  </scstep>
  <scstep>
   <time name="dav">    0.77    0.77</time>
   <time name="total">    0.81    0.81</time>
   <energy>
    <i name="e_fr_energy">   -151.59369269 </i>
    <i name="e_wo_entrp">   -151.40750096 </i>
    <i name="e_0_energy">   -151.50059682 </i>
   </energy>
  </scstep>
  <scstep>
   <time name="dav">    0.78    0.78</time>
   <time name="total">    0.82    0.82</time>
   <energy>
    <i name="e_fr_energy">   -151.47361789 </i>
    <i name="e_wo_entrp">   -151.28619293 </i>
    <i name="e_0_energy">   -151.37990541 </i>
   </energy>
  </scstep>
  <scstep>
   <time name="dav">    0.79    0.79</time>
   <time name="total">    0.83    0.83</time>
   <energy>
    <i name="e_fr_energy">   -151.36697119 </i>
    <i name="e_wo_entrp">   -151.18641641 </i>
    <i name="e_0_energy">   -151.27669380 </i>
   </energy>
  </scstep>
  <scstep>
   <time name="dav">    0.79    0.79</time>
   <time name="total">    0.83    0.83</time>
   <energy>
    <i name="e_fr_energy">   -151.31174885 </i>
    <i name="e_wo_entrp">   -151.12451031 </i>
    <i name="e_0_energy">   -151.21812958 </i>
   </energy>
  </scstep>
  <scstep>
   <time name="dav">    0.76    0.76</time>
   <time name="total">    0.80    0.80</time>
   <energy>
    <i name="e_fr_energy">   -151.27994994 </i>
    <i name="e_wo_entrp">   -151.09384907 </i>
    <i name="e_0_energy">   -151.18689951 </i>
   </energy>
  </scstep>
  <scstep>
   <time name="dav">    0.75    0.75</time>
   <time name="total">    0.79    0.80</time>
   <energy>
    <i name="e_fr_energy">   -151.25005368 </i>
    <i name="e_wo_entrp">   -151.06464879 </i>
    <i name="e_0_energy">   -151.15735124 </i>
   </energy>
  </scstep>
  <scstep>
   <time name="dav">    0.77    0.77</time>
   <time name="total">    0.81    0.81</time>
   <energy>
    <i name="e_fr_energy">   -151.22912790 </i>
    <i name="e_wo_entrp">   -151.04486081 </i>
    <i name="e_0_energy">   -151.13699436 </i>
   </energy>
  </scstep>
  <scstep>
   <time name="dav">    0.73    0.74</time>
   <time name="total">    0.77    0.77</time>
   <energy>
    <i name="e_fr_energy">   -151.22415393 </i>
    <i name="e_wo_entrp">   -151.04019027 </i>
    <i name="e_0_energy">   -151.13217210 </i>
   </energy>
  </scstep>
  <scstep>
   <time name="dav">    0.74    0.74</time>
   <time name="total">    0.78    0.78</time>
   <energy>
    <i name="e_fr_energy">   -151.22171670 </i>
    <i name="e_wo_entrp">   -151.03794574 </i>
    <i name="e_0_energy">   -151.12983122 </i>
   </energy>
  </scstep>
  <scstep>
   <time name="dav">    0.77    0.77</time>
   <time name="total">    0.81    0.81</time>
   <energy>
    <i name="e_fr_energy">   -151.21961410 </i>
    <i name="e_wo_entrp">   -151.03611251 </i>
    <i name="e_0_energy">   -151.12786331 </i>
   </energy>
  </scstep>
  <scstep>
   <time name="dav">    0.71    0.71</time>
   <time name="total">    0.75    0.75</time>
   <energy>
    <i name="e_fr_energy">   -151.21948898 </i>
    <i name="e_wo_entrp">   -151.03595877 </i>
    <i name="e_0_energy">   -151.12772387 </i>
   </energy>
  </scstep>
  <scstep>
   <time name="dav">    0.70    0.70</time>
   <time name="total">    0.74    0.74</time>
   <energy>
    <i name="e_fr_energy">   -151.21899795 </i>
    <i name="e_wo_entrp">   -151.03557793 </i>
    <i name="e_0_energy">   -151.12728794 </i>
   </energy>
  </scstep>
  <scstep>
   <time name="dav">    0.77    0.77</time>
   <time name="total">    0.81    0.81</time>
   <energy>
    <i name="e_fr_energy">   -151.21858897 </i>
    <i name="e_wo_entrp">   -151.03588010 </i>
    <i name="e_0_energy">   -151.12723453 </i>
   </energy>
  </scstep>
  <scstep>
   <time name="dav">    0.78    0.78</time>
   <time name="total">    0.82    0.82</time>
   <energy>
    <i name="e_fr_energy">   -151.21851807 </i>
    <i name="e_wo_entrp">   -151.03546743 </i>
    <i name="e_0_energy">   -151.12699275 </i>
   </energy>
  </scstep>
  <scstep>
   <time name="dav">    0.71    0.71</time>
   <time name="total">    0.75    0.75</time>
   <energy>
    <i name="e_fr_energy">   -151.21855007 </i>
    <i name="e_wo_entrp">   -151.03534678 </i>
    <i name="e_0_energy">   -151.12694843 </i>
   </energy>
  </scstep>
  <scstep>
   <time name="dav">    0.57    0.57</time>
   <time name="total">    0.61    0.61</time>
   <energy>
    <i name="e_fr_energy">   -151.21852714 </i>
    <i name="e_wo_entrp">   -151.03547980 </i>
    <i name="e_0_energy">   -151.12700347 </i>
   </energy>
  </scstep>
  <scstep>
   <time name="dav">    0.42    0.42</time>
   <time name="total">    0.44    0.44</time>
   <energy>
    <i name="alphaZ">    385.52790621 </i>
    <i name="ewald">  -4395.50576138 </i>
    <i name="hartreedc">  -1070.54192017 </i>
    <i name="XCdc">   -781.48025187 </i>
    <i name="pawpsdc">   6502.01543479 </i>
    <i name="pawaedc">  -5685.77024192 </i>
    <i name="eentropy">     -0.18306339 </i>
    <i name="bandstr">    207.23514519 </i>
    <i name="atom">   4687.48422623 </i>
    <i name="e_fr_energy">   -151.21852631 </i>
    <i name="e_wo_entrp">   -151.03546292 </i>
    <i name="e_0_energy">   -151.12699461 </i>
   </energy>
  </scstep>
  <structure>
   <crystal>
    <varray name="basis" >
     <v>       6.63790114       0.00000000       0.00000000 </v>
     <v>      -0.00000000       6.63790114       0.00000000 </v>
     <v>       0.00000000      -0.00000000       8.42554950 </v>
    </varray>
    <i name="volume">    371.24430054 </i>
    <varray name="rec_basis" >
     <v>       0.15065003       0.00000000       0.00000000 </v>
     <v>      -0.00000000       0.15065003       0.00000000 </v>
     <v>       0.00000000      -0.00000000       0.11868662 </v>
    </varray>
   </crystal>
   <varray name="positions" >
    <v>       0.00000000      -0.00000000       0.31767726 </v>
    <v>       0.15739482       0.79153698       0.63527125 </v>
    <v>       0.84260518       0.20846302       0.63527125 </v>
    <v>       0.20846302       0.15739482       0.63527125 </v>
    <v>       0.79153698       0.84260518       0.63527125 </v>
    <v>       0.38876326       0.75029460       0.46286648 </v>
    <v>       0.61123674       0.24970540       0.46286648 </v>
    <v>       0.24970540       0.38876326       0.46286648 </v>
    <v>       0.75029460       0.61123674       0.46286648 </v>
    <v>       0.50000000       0.50000000       0.00093699 </v>
    <v>       0.00000000       0.50000000       0.04604424 </v>
    <v>       0.50000000      -0.00000000       0.04604424 </v>
    <v>       0.37204379       0.15357327       0.26544130 </v>
    <v>       0.62795621       0.84642673       0.26544130 </v>
    <v>       0.84642673       0.37204379       0.26544130 </v>
    <v>       0.15357327       0.62795621       0.26544130 </v>
    <v>       0.00000000      -0.00000000      -0.00200028 </v>
    <v>       0.50000000       0.50000000       0.75430397 </v>
    <v>       0.00000000       0.50000000       0.77548522 </v>
    <v>       0.50000000      -0.00000000       0.77548522 </v>
   </varray>
  </structure>
  <varray name="forces" >
   <v>       0.00000000      -0.00000000       0.24984305 </v>
   <v>      -0.27679625      -1.12013361       0.55705206 </v>
   <v>       0.27679625       1.12013361       0.55705206 </v>
   <v>       1.12013361      -0.27679625       0.55705206 </v>
   <v>      -1.12013361       0.27679625       0.55705206 </v>
   <v>       0.53888514       1.66604218       0.51404482 </v>
   <v>      -0.53888514      -1.66604218       0.51404482 </v>
   <v>      -1.66604218       0.53888514       0.51404482 </v>
   <v>       1.66604218      -0.53888514       0.51404482 </v>
   <v>      -0.00000000       0.00000000      -1.37623551 </v>
   <v>       0.00000000       0.00000000      -1.38630888 </v>
   <v>       0.00000000       0.00000000      -1.38630888 </v>
   <v>      -1.29656858       0.29478812      -0.24109797 </v>
   <v>       1.29656858      -0.29478812      -0.24109797 </v>
   <v>      -0.29478812      -1.29656858      -0.24109797 </v>
   <v>       0.29478812       1.29656858      -0.24109797 </v>
   <v>       0.00000000      -0.00000000       0.80527732 </v>
   <v>      -0.00000000      -0.00000000       0.96636042 </v>
   <v>       0.00000000       0.00000000      -0.59631159 </v>
   <v>       0.00000000       0.00000000      -0.59631159 </v>
  </varray>
  <varray name="stress" >
   <v>    -235.76281459       0.00000003      -0.00000000 </v>
   <v>      -0.00000003    -235.76281459       0.00000000 </v>
   <v>      -0.00000000       0.00000000    -239.49790701 </v>
  </varray>
  <energy>
   <i name="e_fr_energy">   -151.21852631 </i>
   <i name="e_wo_entrp">   -151.12699461 </i>
   <i name="e_0_energy">     -0.18306339 </i>
  </energy>
  <time name="totalsc">   28.35   28.38</time>
 </calculation>
 <calculation>
  <scstep>
   <time name="dav">    0.49    0.49</time>
   <time name="total">    0.53    0.53</time>
   <energy>
    <i name="alphaZ">    421.67965834 </i>
    <i name="ewald">  -4489.87028466 </i>
    <i name="hartreedc">  -1136.54350764 </i>
    <i name="XCdc">   -776.10142505 </i>
    <i name="pawpsdc">   6501.85615298 </i>
    <i name="pawaedc">  -5685.60763458 </i>
    <i name="eentropy">     -0.14159226 </i>
    <i name="bandstr">    316.35105744 </i>
    <i name="atom">   4687.48422623 </i>
    <i name="e_fr_energy">   -160.89334920 </i>
    <i name="e_wo_entrp">   -160.75175694 </i>
    <i name="e_0_energy">   -160.82255307 </i>
   </energy>
  </scstep>
  <scstep>
   <time name="dav">    0.81    0.81</time>
   <time name="total">    0.85    0.85</time>
   <energy>
    <i name="e_fr_energy">   -280.20683783 </i>
    <i name="e_wo_entrp">   -280.11066098 </i>
    <i name="e_0_energy">   -280.15874941 </i>
   </energy>
  </scstep>
  <scstep>
   <time name="dav">    0.71    0.71</time>
   <time name="total">    0.75    0.75</time>
   <energy>
    <i name="e_fr_energy">   -194.87812870 </i>
    <i name="e_wo_entrp">   -194.73230353 </i>
    <i name="e_0_energy">   -194.80521611 </i>
   </energy>
  </scstep>
  <scstep>
   <time name="dav">    0.77    0.77</time>
   <time name="total">    0.81    0.81</time>
   <energy>
    <i name="e_fr_energy">   -161.92294572 </i>
    <i name="e_wo_entrp">   -161.73057199 </i>
    <i name="e_0_energy">   -161.82675886 </i>
   </energy>
  </scstep>
  <scstep>
   <time name="dav">    0.79    0.79</time>
   <time name="total">    0.82    0.83</time>
   <energy>
    <i name="e_fr_energy">   -154.51145673 </i>
    <i name="e_wo_entrp">   -154.39115281 </i>
    <i name="e_0_energy">   -154.45130477 </i>
   </energy>
  </scstep>
  <scstep>
   <time name="dav">    0.81    0.81</time>
   <time name="total">    0.85    0.85</time>
   <energy>
    <i name="e_fr_energy">   -154.35562081 </i>
    <i name="e_wo_entrp">   -154.22373538 </i>
    <i name="e_0_energy">   -154.28967810 </i>
   </energy>
  </scstep>
  <scstep>
   <time name="dav">    0.78    0.79</time>
   <time name="total">    0.82    0.82</time>
   <energy>
    <i name="e_fr_energy">   -154.27684029 </i>
    <i name="e_wo_entrp">   -154.12209374 </i>
    <i name="e_0_energy">   -154.19946702 </i>
   </energy>
  </scstep>
  <scstep>
   <time name="dav">    0.76    0.76</time>
   <time name="total">    0.80    0.80</time>
   <energy>
    <i name="e_fr_energy">   -153.90516936 </i>
    <i name="e_wo_entrp">   -153.75007295 </i>
    <i name="e_0_energy">   -153.82762116 </i>
   </energy>
  </scstep>
  <scstep>
   <time name="dav">    0.82    0.83</time>
   <time name="total">    0.86    0.86</time>
   <energy>
    <i name="e_fr_energy">   -153.59899800 </i>
    <i name="e_wo_entrp">   -153.45303567 </i>
    <i name="e_0_energy">   -153.52601683 </i>
   </energy>
  </scstep>
  <scstep>
   <time name="dav">    0.82    0.82</time>
   <time name="total">    0.85    0.86</time>
   <energy>
    <i name="e_fr_energy">   -153.64446373 </i>
    <i name="e_wo_entrp">   -153.49340860 </i>
    <i name="e_0_energy">   -153.56893616 </i>
   </energy>
  </scstep>
  <scstep>
   <time name="dav">    0.70    0.70</time>
   <time name="total">    0.74    0.74</time>
   <energy>
    <i name="e_fr_energy">   -153.56037941 </i>
    <i name="e_wo_entrp">   -153.40231111 </i>
    <i name="e_0_energy">   -153.48134526 </i>
   </energy>
  </scstep>
  <scstep>
   <time name="dav">    0.81    0.81</time>
   <time name="total">    0.85    0.85</time>
   <energy>
    <i name="e_fr_energy">   -153.37346146 </i>
    <i name="e_wo_entrp">   -153.21355402 </i>
    <i name="e_0_energy">   -153.29350774 </i>
   </energy>
  </scstep>
  <scstep>
   <time name="dav">    0.82    0.82</time>
   <time name="total">    0.86    0.86</time>
   <energy>
    <i name="e_fr_energy">   -153.37545557 </i>
    <i name="e_wo_entrp">   -153.21857514 </i>
    <i name="e_0_energy">   -153.29701535 </i>
   </energy>
  </scstep>
  <scstep>
   <time name="dav">    0.78    0.78</time>
   <time name="total">    0.81    0.81</time>
   <energy>
    <i name="e_fr_energy">   -153.36150156 </i>
    <i name="e_wo_entrp">   -153.20226860 </i>
    <i name="e_0_energy">   -153.28188508 </i>
   </energy>
  </scstep>
  <scstep>
   <time name="dav">    0.81    0.81</time>
   <time name="total">    0.84    0.85</time>
   <energy>
    <i name="e_fr_energy">   -153.35694369 </i>
    <i name="e_wo_entrp">   -153.19701177 </i>
    <i name="e_0_energy">   -153.27697773 </i>
   </energy>
  </scstep>
  <scstep>
   <time name="dav">    0.77    0.77</time>
   <time name="total">    0.81    0.81</time>
   <energy>
    <i name="e_fr_energy">   -153.35503099 </i>
    <i name="e_wo_entrp">   -153.19573704 </i>
    <i name="e_0_energy">   -153.27538401 </i>
   </energy>
  </scstep>
  <scstep>
   <time name="dav">    0.80    0.80</time>
   <time name="total">    0.84    0.84</time>
   <energy>
    <i name="e_fr_energy">   -153.35516912 </i>
    <i name="e_wo_entrp">   -153.19622122 </i>
    <i name="e_0_energy">   -153.27569517 </i>
   </energy>
  </scstep>
  <scstep>
   <time name="dav">    0.76    0.76</time>
   <time name="total">    0.80    0.80</time>
   <energy>
    <i name="e_fr_energy">   -153.35466193 </i>
    <i name="e_wo_entrp">   -153.19567260 </i>
    <i name="e_0_energy">   -153.27516726 </i>
   </energy>
  </scstep>
  <scstep>
   <time name="dav">    0.82    0.83</time>
   <time name="total">    0.86    0.86</time>
   <energy>
    <i name="e_fr_energy">   -153.35434520 </i>
    <i name="e_wo_entrp">   -153.19529894 </i>
    <i name="e_0_energy">   -153.27482207 </i>
   </energy>
  </scstep>
  <scstep>
   <time name="dav">    0.64    0.64</time>
   <time name="total">    0.68    0.69</time>
   <energy>
    <i name="e_fr_energy">   -153.35436698 </i>
    <i name="e_wo_entrp">   -153.19538358 </i>
    <i name="e_0_energy">   -153.27487528 </i>
   </energy>
  </scstep>
  <scstep>
   <time name="dav">    0.46    0.46</time>
   <time name="total">    0.50    0.50</time>
   <energy>
    <i name="e_fr_energy">   -153.35434796 </i>
    <i name="e_wo_entrp">   -153.19531757 </i>
    <i name="e_0_energy">   -153.27483277 </i>
   </energy>
  </scstep>
  <scstep>
   <time name="dav">    0.50    0.50</time>
   <time name="total">    0.52    0.52</time>
   <energy>
    <i name="alphaZ">    421.67965834 </i>
    <i name="ewald">  -4489.87028466 </i>
    <i name="hartreedc">  -1066.79497578 </i>
    <i name="XCdc">   -778.23942686 </i>
    <i name="pawpsdc">   7057.06254491 </i>
    <i name="pawaedc">  -6245.66507286 </i>
    <i name="eentropy">     -0.15902716 </i>
    <i name="bandstr">    261.14800856 </i>
    <i name="atom">   4687.48422623 </i>
    <i name="e_fr_energy">   -153.35434929 </i>
    <i name="e_wo_entrp">   -153.19532213 </i>
    <i name="e_0_energy">   -153.27483571 </i>
   </energy>
  </scstep>
  <structure>
   <crystal>
    <varray name="basis" >
     <v>       6.43570788       0.00000000       0.00000000 </v>
     <v>      -0.00000000       6.43570788       0.00000000 </v>
     <v>       0.00000000      -0.00000000       8.19483696 </v>
    </varray>
    <i name="volume">    339.41650978 </i>
    <varray name="rec_basis" >
     <v>       0.15538306       0.00000000       0.00000000 </v>
     <v>      -0.00000000       0.15538306       0.00000000 </v>
     <v>       0.00000000      -0.00000000       0.12202805 </v>
    </varray>
   </crystal>
   <varray name="positions" >
    <v>       0.00000000      -0.00000000       0.32219467 </v>
    <v>       0.16049772       0.79333824       0.62916359 </v>
    <v>       0.83950228       0.20666176       0.62916359 </v>
    <v>       0.20666176       0.16049772       0.62916359 </v>
    <v>       0.79333824       0.83950228       0.62916359 </v>
    <v>       0.38966751       0.73706338       0.45993810 </v>
    <v>       0.61033249       0.26293662       0.45993810 </v>
    <v>       0.26293662       0.38966751       0.45993810 </v>
    <v>       0.73706338       0.61033249       0.45993810 </v>
    <v>       0.50000000       0.50000000       0.00168392 </v>
    <v>       0.00000000       0.50000000       0.05188930 </v>
    <v>       0.50000000      -0.00000000       0.05188930 </v>
    <v>       0.37879430       0.15673151       0.27174350 </v>
    <v>       0.62120570       0.84326849       0.27174350 </v>
    <v>       0.84326849       0.37879430       0.27174350 </v>
    <v>       0.15673151       0.62120570       0.27174350 </v>
    <v>       0.00000000      -0.00000000      -0.00097447 </v>
    <v>       0.50000000       0.50000000       0.74701536 </v>
    <v>       0.00000000       0.50000000       0.77560710 </v>
    <v>       0.50000000      -0.00000000       0.77560710 </v>
   </varray>
  </structure>
  <varray name="forces" >
   <v>      -0.00000000       0.00000000      -0.10443747 </v>
   <v>      -0.59986931      -1.32325329       1.14027836 </v>
   <v>       0.59986931       1.32325329       1.14027836 </v>
   <v>       1.32325329      -0.59986931       1.14027836 </v>
   <v>      -1.32325329       0.59986931       1.14027836 </v>
   <v>       0.59330175       2.80827421       1.02296830 </v>
   <v>      -0.59330175      -2.80827421       1.02296830 </v>
   <v>      -2.80827421       0.59330175       1.02296830 </v>
   <v>       2.80827421      -0.59330175       1.02296830 </v>
   <v>      -0.00000000       0.00000000      -0.97686046 </v>
   <v>       0.00000000       0.00000000      -1.84695976 </v>
   <v>       0.00000000       0.00000000      -1.84695976 </v>
   <v>      -1.82562509       0.21914078      -1.04510576 </v>
   <v>       1.82562509      -0.21914078      -1.04510576 </v>
   <v>      -0.21914078      -1.82562509      -1.04510576 </v>
   <v>       0.21914078       1.82562509      -1.04510576 </v>
   <v>      -0.00000000      -0.00000000       0.39914937 </v>
   <v>       0.00000000      -0.00000000       0.94149877 </v>
   <v>      -0.00000000       0.00000000      -0.51899716 </v>
   <v>      -0.00000000       0.00000000      -0.51899716 </v>
  </varray>
  <varray name="stress" >
   <v>    -138.59686451       0.00000000      -0.00000000 </v>
   <v>      -0.00000000    -138.59686451       0.00000000 </v>
   <v>      -0.00000000       0.00000000    -145.93906127 </v>
  </varray>
  <energy>
   <i name="e_fr_energy">   -153.35434929 </i>
   <i name="e_wo_entrp">   -153.27483571 </i>
   <i name="e_0_energy">     -0.15902716 </i>
  </energy>
  <time name="totalsc">   18.13   18.15</time>
 </calculation>
 <calculation>
  <scstep>
   <time name="dav">    0.52    0.52</time>
   <time name="total">    0.56    0.56</time>
   <energy>
    <i name="alphaZ">    428.64094681 </i>
    <i name="ewald">  -4505.54620863 </i>
    <i name="hartreedc">  -1080.12295993 </i>
    <i name="XCdc">   -777.28473652 </i>
    <i name="pawpsdc">   7056.94700973 </i>
    <i name="pawaedc">  -6245.55258085 </i>
    <i name="eentropy">     -0.13680805 </i>
    <i name="bandstr">    281.91619762 </i>
    <i name="atom">   4687.48422623 </i>
    <i name="e_fr_energy">   -153.65491359 </i>
    <i name="e_wo_entrp">   -153.51810554 </i>
    <i name="e_0_energy">   -153.58650957 </i>
   </energy>
  </scstep>
  <scstep>
   <time name="dav">    0.82    0.82</time>
   <time name="total">    0.86    0.86</time>
   <energy>
    <i name="e_fr_energy">   -166.49784515 </i>
    <i name="e_wo_entrp">   -166.38788293 </i>
    <i name="e_0_energy">   -166.44286404 </i>
   </energy>
  </scstep>
  <scstep>
   <time name="dav">    0.82    0.82</time>
   <time name="total">    0.86    0.86</time>
   <energy>
    <i name="e_fr_energy">   -153.48965930 </i>
    <i name="e_wo_entrp">   -153.34163793 </i>
    <i name="e_0_energy">   -153.41564862 </i>
   </energy>
  </scstep>
  <scstep>
   <time name="dav">    0.76    0.76</time>
   <time name="total">    0.79    0.80</time>
   <energy>
    <i name="e_fr_energy">   -153.48781687 </i>
    <i name="e_wo_entrp">   -153.33870363 </i>
    <i name="e_0_energy">   -153.41326025 </i>
   </energy>
  </scstep>
  <scstep>
   <time name="dav">    0.82    0.82</time>
   <time name="total">    0.85    0.85</time>
   <energy>
    <i name="e_fr_energy">   -153.48544284 </i>
    <i name="e_wo_entrp">   -153.34021510 </i>
    <i name="e_0_energy">   -153.41282897 </i>
   </energy>
  </scstep>
  <scstep>
   <time name="dav">    0.80    0.80</time>
   <time name="total">    0.84    0.84</time>
   <energy>
    <i name="e_fr_energy">   -153.44433619 </i>
    <i name="e_wo_entrp">   -153.28856973 </i>
    <i name="e_0_energy">   -153.36645296 </i>
   </energy>
  </scstep>
  <scstep>
   <time name="dav">    0.80    0.80</time>
   <time name="total">    0.84    0.84</time>
   <energy>
    <i name="e_fr_energy">   -153.42291007 </i>
    <i name="e_wo_entrp">   -153.27597768 </i>
    <i name="e_0_energy">   -153.34944388 </i>
   </energy>
  </scstep>
  <scstep>
   <time name="dav">    0.82    0.82</time>
   <time name="total">    0.85    0.86</time>
   <energy>
    <i name="e_fr_energy">   -153.40567860 </i>
    <i name="e_wo_entrp">   -153.25309233 </i>
    <i name="e_0_energy">   -153.32938546 </i>
   </energy>
  </scstep>
  <scstep>
   <time name="dav">    0.81    0.81</time>
   <time name="total">    0.85    0.85</time>
   <energy>
    <i name="e_fr_energy">   -153.39477717 </i>
    <i name="e_wo_entrp">   -153.23990499 </i>
    <i name="e_0_energy">   -153.31734108 </i>
   </energy>
  </scstep>
  <scstep>
   <time name="dav">    0.76    0.76</time>
   <time name="total">    0.80    0.80</time>
   <energy>
    <i name="e_fr_energy">   -153.39688199 </i>
    <i name="e_wo_entrp">   -153.24130232 </i>
    <i name="e_0_energy">   -153.31909216 </i>
   </energy>
  </scstep>
  <scstep>
   <time name="dav">    0.73    0.73</time>
   <time name="total">    0.77    0.77</time>
   <energy>
    <i name="e_fr_energy">   -153.39387502 </i>
    <i name="e_wo_entrp">   -153.23919469 </i>
    <i name="e_0_energy">   -153.31653485 </i>
   </energy>
  </scstep>
  <scstep>
   <time name="dav">    0.72    0.72</time>
   <time name="total">    0.75    0.75</time>
   <energy>
    <i name="e_fr_energy">   -153.39274124 </i>
    <i name="e_wo_entrp">   -153.23801639 </i>
    <i name="e_0_energy">   -153.31537881 </i>
   </energy>
  </scstep>
  <scstep>
   <time name="dav">    0.76    0.76</time>
   <time name="total">    0.80    0.80</time>
   <energy>
    <i name="e_fr_energy">   -153.39206692 </i>
    <i name="e_wo_entrp">   -153.23805000 </i>
    <i name="e_0_energy">   -153.31505846 </i>
   </energy>
  </scstep>
  <scstep>
   <time name="dav">    0.75    0.76</time>
   <time name="total">    0.79    0.79</time>
   <energy>
    <i name="e_fr_energy">   -153.39188204 </i>
    <i name="e_wo_entrp">   -153.23801831 </i>
    <i name="e_0_energy">   -153.31495018 </i>
   </energy>
  </scstep>
  <scstep>
   <time name="dav">    0.62    0.62</time>
   <time name="total">    0.65    0.65</time>
   <energy>
    <i name="e_fr_energy">   -153.39188817 </i>
    <i name="e_wo_entrp">   -153.23800569 </i>
    <i name="e_0_energy">   -153.31494693 </i>
   </energy>
  </scstep>
  <scstep>
   <time name="dav">    0.39    0.39</time>
   <time name="total">    0.41    0.41</time>
   <energy>
    <i name="alphaZ">    428.64094681 </i>
    <i name="ewald">  -4505.54620863 </i>
    <i name="hartreedc">  -1067.99986447 </i>
    <i name="XCdc">   -777.65409099 </i>
    <i name="pawpsdc">   7179.56016295 </i>
    <i name="pawaedc">  -6369.09610426 </i>
    <i name="eentropy">     -0.15386994 </i>
    <i name="bandstr">    271.37291971 </i>
    <i name="atom">   4687.48422623 </i>
    <i name="e_fr_energy">   -153.39188259 </i>
    <i name="e_wo_entrp">   -153.23801266 </i>
    <i name="e_0_energy">   -153.31494763 </i>
   </energy>
  </scstep>
  <structure>
   <crystal>
    <varray name="basis" >
     <v>       6.39942176       0.00000000       0.00000000 </v>
     <v>      -0.00000000       6.39942176       0.00000000 </v>
     <v>       0.00000000      -0.00000000       8.15343270 </v>
    </varray>
    <i name="volume">    333.90425936 </i>
    <varray name="rec_basis" >
     <v>       0.15626412       0.00000000       0.00000000 </v>
     <v>      -0.00000000       0.15626412       0.00000000 </v>
     <v>       0.00000000      -0.00000000       0.12264773 </v>
    </varray>
   </crystal>
   <varray name="positions" >
    <v>       0.00000000      -0.00000000       0.32302820 </v>
    <v>       0.16107207       0.79367166       0.62803663 </v>
    <v>       0.83892793       0.20632834       0.62803663 </v>
    <v>       0.20632834       0.16107207       0.62803663 </v>
    <v>       0.79367166       0.83892793       0.62803663 </v>
    <v>       0.38983489       0.73461427       0.45939777 </v>
    <v>       0.61016511       0.26538573       0.45939777 </v>
    <v>       0.26538573       0.38983489       0.45939777 </v>
    <v>       0.73461427       0.61016511       0.45939777 </v>
    <v>       0.50000000       0.50000000       0.00182174 </v>
    <v>       0.00000000       0.50000000       0.05296780 </v>
    <v>       0.50000000      -0.00000000       0.05296780 </v>
    <v>       0.38004383       0.15731610       0.27290635 </v>
    <v>       0.61995617       0.84268390       0.27290635 </v>
    <v>       0.84268390       0.38004383       0.27290635 </v>
    <v>       0.15731610       0.61995617       0.27290635 </v>
    <v>       0.00000000      -0.00000000      -0.00078519 </v>
    <v>       0.50000000       0.50000000       0.74567051 </v>
    <v>       0.00000000       0.50000000       0.77562958 </v>
    <v>       0.50000000      -0.00000000       0.77562958 </v>
   </varray>
  </structure>
  <varray name="forces" >
   <v>       0.00000000       0.00000000      -0.19814557 </v>
   <v>      -0.66918677      -1.36168825       1.26955099 </v>
   <v>       0.66918677       1.36168825       1.26955099 </v>
   <v>       1.36168825      -0.66918677       1.26955099 </v>
   <v>      -1.36168825       0.66918677       1.26955099 </v>
   <v>       0.58523370       3.06596513       1.13201949 </v>
   <v>      -0.58523370      -3.06596513       1.13201949 </v>
   <v>      -3.06596513       0.58523370       1.13201949 </v>
   <v>       3.06596513      -0.58523370       1.13201949 </v>
   <v>       0.00000000       0.00000000      -0.90742730 </v>
   <v>       0.00000000       0.00000000      -1.92974087 </v>
   <v>       0.00000000       0.00000000      -1.92974087 </v>
   <v>      -1.94447968       0.17695990      -1.23083397 </v>
   <v>       1.94447968      -0.17695990      -1.23083397 </v>
   <v>      -0.17695990      -1.94447968      -1.23083397 </v>
   <v>       0.17695990       1.94447968      -1.23083397 </v>
   <v>       0.00000000       0.00000000       0.31518088 </v>
   <v>       0.00000000       0.00000000       0.97369503 </v>
   <v>       0.00000000       0.00000000      -0.50338366 </v>
   <v>       0.00000000       0.00000000      -0.50338366 </v>
  </varray>
  <varray name="stress" >
   <v>    -117.54638732      -0.00000000       0.00000000 </v>
   <v>       0.00000000    -117.54638732       0.00000000 </v>
   <v>       0.00000000       0.00000000    -125.99067829 </v>
  </varray>
  <energy>
   <i name="e_fr_energy">   -153.39188259 </i>
   <i name="e_wo_entrp">   -153.31494763 </i>
   <i name="e_0_energy">     -0.15386994 </i>
  </energy>
  <time name="totalsc">   13.28   13.29</time>
 </calculation>
 <calculation>
  <scstep>
   <time name="dav">    0.45    0.45</time>
   <time name="total">    0.49    0.49</time>
   <energy>
    <i name="alphaZ">    471.99837978 </i>
    <i name="ewald">  -4706.28519975 </i>
    <i name="hartreedc">  -1062.30701125 </i>
    <i name="XCdc">   -772.12385360 </i>
    <i name="pawpsdc">   7179.40445819 </i>
    <i name="pawaedc">  -6368.92489177 </i>
    <i name="eentropy">     -0.13985914 </i>
    <i name="bandstr">    405.19442095 </i>
    <i name="atom">   4687.48422623 </i>
    <i name="e_fr_energy">   -165.69933036 </i>
    <i name="e_wo_entrp">   -165.55947122 </i>
    <i name="e_0_energy">   -165.62940079 </i>
   </energy>
  </scstep>
  <scstep>
   <time name="dav">    0.75    0.75</time>
   <time name="total">    0.78    0.79</time>
   <energy>
    <i name="e_fr_energy">   -254.49227395 </i>
    <i name="e_wo_entrp">   -254.42833434 </i>
    <i name="e_0_energy">   -254.46030414 </i>
   </energy>
  </scstep>
  <scstep>
   <time name="dav">    0.71    0.71</time>
   <time name="total">    0.75    0.75</time>
   <energy>
    <i name="e_fr_energy">   -172.76568860 </i>
    <i name="e_wo_entrp">   -172.63071147 </i>
    <i name="e_0_energy">   -172.69820003 </i>
   </energy>
  </scstep>
  <scstep>
   <time name="dav">    0.76    0.76</time>
   <time name="total">    0.80    0.80</time>
   <energy>
    <i name="e_fr_energy">   -161.24004134 </i>
    <i name="e_wo_entrp">   -161.08326035 </i>
    <i name="e_0_energy">   -161.16165085 </i>
   </energy>
  </scstep>
  <scstep>
   <time name="dav">    0.68    0.68</time>
   <time name="total">    0.72    0.72</time>
   <energy>
    <i name="e_fr_energy">   -160.49075579 </i>
    <i name="e_wo_entrp">   -160.34964169 </i>
    <i name="e_0_energy">   -160.42019874 </i>
   </energy>
  </scstep>
  <scstep>
   <time name="dav">    0.79    0.79</time>
   <time name="total">    0.83    0.83</time>
   <energy>
    <i name="e_fr_energy">   -161.16656988 </i>
    <i name="e_wo_entrp">   -161.00653353 </i>
    <i name="e_0_energy">   -161.08655171 </i>
   </energy>
  </scstep>
  <scstep>
   <time name="dav">    0.79    0.80</time>
   <time name="total">    0.83    0.83</time>
   <energy>
    <i name="e_fr_energy">   -160.48642309 </i>
    <i name="e_wo_entrp">   -160.33657948 </i>
    <i name="e_0_energy">   -160.41150129 </i>
   </energy>
  </scstep>
  <scstep>
   <time name="dav">    0.78    0.78</time>
   <time name="total">    0.82    0.82</time>
   <energy>
    <i name="e_fr_energy">   -160.09768692 </i>
    <i name="e_wo_entrp">   -159.93790886 </i>
    <i name="e_0_energy">   -160.01779789 </i>
   </energy>
  </scstep>
  <scstep>
   <time name="dav">    0.76    0.76</time>
   <time name="total">    0.80    0.80</time>
   <energy>
    <i name="e_fr_energy">   -160.02311805 </i>
    <i name="e_wo_entrp">   -159.85382047 </i>
    <i name="e_0_energy">   -159.93846926 </i>
   </energy>
  </scstep>
  <scstep>
   <time name="dav">    0.68    0.68</time>
   <time name="total">    0.72    0.72</time>
   <energy>
    <i name="e_fr_energy">   -159.84283408 </i>
    <i name="e_wo_entrp">   -159.68264100 </i>
    <i name="e_0_energy">   -159.76273754 </i>
   </energy>
  </scstep>
  <scstep>
   <time name="dav">    0.76    0.76</time>
   <time name="total">    0.80    0.80</time>
   <energy>
    <i name="e_fr_energy">   -159.81869415 </i>
    <i name="e_wo_entrp">   -159.66661194 </i>
    <i name="e_0_energy">   -159.74265305 </i>
   </energy>
  </scstep>
  <scstep>
   <time name="dav">    0.76    0.76</time>
   <time name="total">    0.80    0.80</time>
   <energy>
    <i name="e_fr_energy">   -159.81452127 </i>
    <i name="e_wo_entrp">   -159.65035437 </i>
    <i name="e_0_energy">   -159.73243782 </i>
   </energy>
  </scstep>
  <scstep>
   <time name="dav">    0.65    0.65</time>
   <time name="total">    0.69    0.69</time>
   <energy>
    <i name="e_fr_energy">   -159.81288136 </i>
    <i name="e_wo_entrp">   -159.65243287 </i>
    <i name="e_0_energy">   -159.73265711 </i>
   </energy>
  </scstep>
  <scstep>
   <time name="dav">    0.69    0.69</time>
   <time name="total">    0.72    0.73</time>
   <energy>
    <i name="e_fr_energy">   -159.80189384 </i>
    <i name="e_wo_entrp">   -159.64321967 </i>
    <i name="e_0_energy">   -159.72255675 </i>
   </energy>
  </scstep>
  <scstep>
   <time name="dav">    0.68    0.69</time>
   <time name="total">    0.72    0.72</time>
   <energy>
    <i name="e_fr_energy">   -159.80153352 </i>
    <i name="e_wo_entrp">   -159.64303392 </i>
    <i name="e_0_energy">   -159.72228372 </i>
   </energy>
  </scstep>
  <scstep>
   <time name="dav">    0.72    0.72</time>
   <time name="total">    0.76    0.76</time>
   <energy>
    <i name="e_fr_energy">   -159.80067430 </i>
    <i name="e_wo_entrp">   -159.64255040 </i>
    <i name="e_0_energy">   -159.72161235 </i>
   </energy>
  </scstep>
  <scstep>
   <time name="dav">    0.78    0.79</time>
   <time name="total">    0.82    0.82</time>
   <energy>
    <i name="e_fr_energy">   -159.80017561 </i>
    <i name="e_wo_entrp">   -159.64125064 </i>
    <i name="e_0_energy">   -159.72071312 </i>
   </energy>
  </scstep>
  <scstep>
   <time name="dav">    0.80    0.80</time>
   <time name="total">    0.83    0.83</time>
   <energy>
    <i name="e_fr_energy">   -159.80007387 </i>
    <i name="e_wo_entrp">   -159.64171115 </i>
    <i name="e_0_energy">   -159.72089251 </i>
   </energy>
  </scstep>
  <scstep>
   <time name="dav">    0.63    0.63</time>
   <time name="total">    0.67    0.67</time>
   <energy>
    <i name="e_fr_energy">   -159.80005126 </i>
    <i name="e_wo_entrp">   -159.64144208 </i>
    <i name="e_0_energy">   -159.72074667 </i>
   </energy>
  </scstep>
  <scstep>
   <time name="dav">    0.39    0.39</time>
   <time name="total">    0.41    0.41</time>
   <energy>
    <i name="alphaZ">    471.99837978 </i>
    <i name="ewald">  -4706.28519975 </i>
    <i name="hartreedc">   -984.93170880 </i>
    <i name="XCdc">   -774.05962811 </i>
    <i name="pawpsdc">   7551.74960966 </i>
    <i name="pawaedc">  -6744.79171697 </i>
    <i name="eentropy">     -0.15857201 </i>
    <i name="bandstr">    339.19455612 </i>
    <i name="atom">   4687.48422623 </i>
    <i name="e_fr_energy">   -159.80005386 </i>
    <i name="e_wo_entrp">   -159.64148185 </i>
    <i name="e_0_energy">   -159.72076786 </i>
   </energy>
  </scstep>
  <structure>
   <crystal>
    <varray name="basis" >
     <v>       6.21198435       0.00000000       0.00000000 </v>
     <v>      -0.00000000       6.21198435       0.00000000 </v>
     <v>       0.00000000      -0.00000000       7.85804299 </v>
    </varray>
    <i name="volume">    303.23205335 </i>
    <varray name="rec_basis" >
     <v>       0.16097916       0.00000000       0.00000000 </v>
     <v>      -0.00000000       0.16097916       0.00000000 </v>
     <v>       0.00000000      -0.00000000       0.12725815 </v>
    </varray>
   </crystal>
   <varray name="positions" >
    <v>       0.00000000      -0.00000000       0.31838614 </v>
    <v>       0.15389548       0.78261972       0.63987526 </v>
    <v>       0.84610452       0.21738028       0.63987526 </v>
    <v>       0.21738028       0.15389548       0.63987526 </v>
    <v>       0.78261972       0.84610452       0.63987526 </v>
    <v>       0.39326400       0.76671953       0.46798005 </v>
    <v>       0.60673600       0.23328047       0.46798005 </v>
    <v>       0.23328047       0.39326400       0.46798005 </v>
    <v>       0.76671953       0.60673600       0.46798005 </v>
    <v>       0.50000000       0.50000000      -0.00380304 </v>
    <v>       0.00000000       0.50000000       0.03766886 </v>
    <v>       0.50000000      -0.00000000       0.03766886 </v>
    <v>       0.36097356       0.15608273       0.26113021 </v>
    <v>       0.63902644       0.84391727       0.26113021 </v>
    <v>       0.84391727       0.36097356       0.26113021 </v>
    <v>       0.15608273       0.63902644       0.26113021 </v>
    <v>       0.00000000      -0.00000000       0.00016084 </v>
    <v>       0.50000000       0.50000000       0.75679204 </v>
    <v>       0.00000000       0.50000000       0.77273862 </v>
    <v>       0.50000000      -0.00000000       0.77273862 </v>
   </varray>
  </structure>
  <varray name="forces" >
   <v>       0.00000000      -0.00000000       0.57500390 </v>
   <v>       0.14415591      -0.92079544       1.12907651 </v>
   <v>      -0.14415591       0.92079544       1.12907651 </v>
   <v>       0.92079544       0.14415591       1.12907651 </v>
   <v>      -0.92079544      -0.14415591       1.12907651 </v>
   <v>       0.67815589       1.60177936       0.36495108 </v>
   <v>      -0.67815589      -1.60177936       0.36495108 </v>
   <v>      -1.60177936       0.67815589       0.36495108 </v>
   <v>       1.60177936      -0.67815589       0.36495108 </v>
   <v>       0.00000000      -0.00000000       0.16720701 </v>
   <v>       0.00000000       0.00000000      -1.21644753 </v>
   <v>       0.00000000       0.00000000      -1.21644753 </v>
   <v>      -1.68720805       0.85971788      -0.77730726 </v>
   <v>       1.68720805      -0.85971788      -0.77730726 </v>
   <v>      -0.85971788      -1.68720805      -0.77730726 </v>
   <v>       0.85971788       1.68720805      -0.77730726 </v>
   <v>       0.00000000      -0.00000000       0.29457946 </v>
   <v>      -0.00000000       0.00000000      -0.28771975 </v>
   <v>      -0.00000000       0.00000000      -0.59152843 </v>
   <v>       0.00000000       0.00000000      -0.59152843 </v>
  </varray>
  <varray name="stress" >
   <v>     -55.28927424      -0.00000008       0.00000000 </v>
   <v>       0.00000008     -55.28927424      -0.00000000 </v>
   <v>       0.00000000       0.00000000     -30.88788595 </v>
  </varray>
  <energy>
   <i name="e_fr_energy">   -159.80005386 </i>
   <i name="e_wo_entrp">   -159.72076786 </i>
   <i name="e_0_energy">     -0.15857201 </i>
  </energy>
  <time name="totalsc">   15.74   15.76</time>
 </calculation>
 <calculation>
  <scstep>
   <time name="dav">    0.46    0.46</time>
[...]
       <r>    6.8390    0.0000 </r>
       <r>    6.9220    0.0000 </r>
       <r>    6.9595    0.0000 </r>
       <r>    7.0721    0.0000 </r>
       <r>    7.0877    0.0000 </r>
       <r>    7.1316    0.0000 </r>
       <r>    7.2601    0.0000 </r>
       <r>    7.3808    0.0000 </r>
      </set>
      <set comment="kpoint 6">
       <r>    1.7167    1.0000 </r>
       <r>    1.7985    1.0000 </r>
       <r>    1.7985    1.0000 </r>
       <r>    2.1774    1.0000 </r>
       <r>    2.5153    1.0000 </r>
       <r>    2.5153    1.0000 </r>
       <r>    2.6671    1.0000 </r>
       <r>    2.7878    1.0000 </r>
       <r>    3.3375    1.0000 </r>
       <r>    3.3375    1.0000 </r>
       <r>    3.4298    1.0000 </r>
       <r>    3.5311    1.0000 </r>
       <r>    3.7418    1.0000 </r>
       <r>    3.7751    1.0000 </r>
       <r>    3.7751    1.0000 </r>
       <r>    3.8365    1.0000 </r>
       <r>    3.8526    1.0000 </r>
       <r>    3.8526    1.0000 </r>
       <r>    3.8763    1.0000 </r>
       <r>    3.9040    1.0000 </r>
       <r>    4.0653    1.0000 </r>
       <r>    4.0653    1.0000 </r>
       <r>    4.0700    1.0000 </r>
       <r>    4.1196    1.0000 </r>
       <r>    4.1537    1.0000 </r>
       <r>    4.3471    1.0000 </r>
       <r>    4.3471    1.0000 </r>
       <r>    4.3938    1.0000 </r>
       <r>    4.3981    1.0000 </r>
       <r>    4.4823    1.0000 </r>
       <r>    4.6408    1.0000 </r>
       <r>    4.6408    1.0000 </r>
       <r>    4.6812    1.0000 </r>
       <r>    4.6864    1.0000 </r>
       <r>    4.7614    1.0000 </r>
       <r>    4.7714    1.0000 </r>
       <r>    4.8827    1.0000 </r>
       <r>    4.8827    1.0000 </r>
       <r>    5.0531    1.0000 </r>
       <r>    5.0531    1.0000 </r>
       <r>    5.1266    1.0000 </r>
       <r>    5.1266    1.0000 </r>
       <r>    5.1477    1.0000 </r>
       <r>    5.2425    1.0000 </r>
       <r>    5.2896    1.0000 </r>
       <r>    5.3589    1.0000 </r>
       <r>    5.3589    1.0000 </r>
       <r>    5.4576    1.0000 </r>
       <r>    5.7401    1.0000 </r>
       <r>    5.7475    1.0000 </r>
       <r>    5.8035    1.0000 </r>
       <r>    5.8035    1.0000 </r>
       <r>    5.8688    1.0000 </r>
       <r>    5.8688    1.0000 </r>
       <r>    6.0691    0.9998 </r>
       <r>    6.1162    0.9980 </r>
       <r>    6.2240    0.9119 </r>
       <r>    6.2240    0.9119 </r>
       <r>    6.3963    0.1392 </r>
       <r>    6.5551    0.0004 </r>
       <r>    6.9238    0.0000 </r>
       <r>    6.9238    0.0000 </r>
       <r>    7.0843    0.0000 </r>
       <r>    7.2601    0.0000 </r>
       <r>    7.2958    0.0000 </r>
       <r>    7.2958    0.0000 </r>
       <r>    7.5095    0.0000 </r>
       <r>    7.5095    0.0000 </r>
      </set>
     </set>
    </set>
   </array>
  </eigenvalues>
  <separator name="orbital magnetization" >
   <v name="MAGDIPOLOUT">      0.00000000      0.00000000      0.00000000</v>
  </separator>
  <dos>
   <i name="efermi">      6.31969317 </i>
   <total>
    <array>
     <dimension dim="1">gridpoints</dimension>
     <dimension dim="2">spin</dimension>
     <field>energy</field>
     <field>total</field>
     <field>integrated</field>
     <set>
      <set comment="spin 1">
       <r>    -1.6938     0.0000     0.0000 </r>
       <r>    -1.6598     0.0000     0.0000 </r>
       <r>    -1.6258     0.0000     0.0000 </r>
       <r>    -1.5918     0.0000     0.0000 </r>
       <r>    -1.5578     0.0000     0.0000 </r>
       <r>    -1.5238     0.0000     0.0000 </r>
       <r>    -1.4898     0.0000     0.0000 </r>
       <r>    -1.4558     0.0000     0.0000 </r>
       <r>    -1.4217     0.0000     0.0000 </r>
       <r>    -1.3877     0.0000     0.0000 </r>
       <r>    -1.3537     0.0000     0.0000 </r>
       <r>    -1.3197     0.0000     0.0000 </r>
       <r>    -1.2857     0.0000     0.0000 </r>
       <r>    -1.2517     0.0000     0.0000 </r>
       <r>    -1.2177     0.0000     0.0000 </r>
       <r>    -1.1837     0.0000     0.0000 </r>
       <r>    -1.1497     0.0000     0.0000 </r>
       <r>    -1.1156     0.0000     0.0000 </r>
       <r>    -1.0816     0.0000     0.0000 </r>
       <r>    -1.0476     0.0000     0.0000 </r>
       <r>    -1.0136     0.0000     0.0000 </r>
       <r>    -0.9796     0.0002     0.0000 </r>
       <r>    -0.9456     0.0012     0.0000 </r>
       <r>    -0.9116     0.0063     0.0003 </r>
       <r>    -0.8776     0.0268     0.0012 </r>
       <r>    -0.8436     0.0914     0.0043 </r>
       <r>    -0.8095     0.2482     0.0127 </r>
       <r>    -0.7755     0.5372     0.0310 </r>
       <r>    -0.7415     0.9266     0.0625 </r>
       <r>    -0.7075     1.2737     0.1058 </r>
       <r>    -0.6735     1.3955     0.1533 </r>
       <r>    -0.6395     1.2189     0.1947 </r>
       <r>    -0.6055     0.8506     0.2237 </r>
       <r>    -0.5715     0.4831     0.2401 </r>
       <r>    -0.5375     0.2574     0.2489 </r>
       <r>    -0.5034     0.2248     0.2565 </r>
       <r>    -0.4694     0.3900     0.2698 </r>
       <r>    -0.4354     0.7220     0.2943 </r>
       <r>    -0.4014     1.1109     0.3321 </r>
       <r>    -0.3674     1.3690     0.3787 </r>
       <r>    -0.3334     1.3453     0.4244 </r>
       <r>    -0.2994     1.0537     0.4603 </r>
       <r>    -0.2654     0.6577     0.4826 </r>
       <r>    -0.2314     0.3272     0.4938 </r>
       <r>    -0.1973     0.1297     0.4982 </r>
       <r>    -0.1633     0.0410     0.4996 </r>
       <r>    -0.1293     0.0103     0.4999 </r>
       <r>    -0.0953     0.0021     0.5000 </r>
       <r>    -0.0613     0.0003     0.5000 </r>
       <r>    -0.0273     0.0000     0.5000 </r>
       <r>     0.0067     0.0000     0.5000 </r>
       <r>     0.0407     0.0000     0.5000 </r>
       <r>     0.0747     0.0000     0.5000 </r>
       <r>     0.1088     0.0002     0.5000 </r>
       <r>     0.1428     0.0014     0.5001 </r>
       <r>     0.1768     0.0074     0.5003 </r>
       <r>     0.2108     0.0309     0.5014 </r>
       <r>     0.2448     0.1031     0.5049 </r>
       <r>     0.2788     0.2747     0.5142 </r>
       <r>     0.3128     0.5874     0.5342 </r>
       <r>     0.3468     1.0199     0.5689 </r>
       <r>     0.3808     1.4749     0.6190 </r>
       <r>     0.4149     1.8694     0.6826 </r>
       <r>     0.4489     2.2328     0.7586 </r>
       <r>     0.4829     2.6376     0.8483 </r>
       <r>     0.5169     3.0183     0.9509 </r>
       <r>     0.5509     3.1924     1.0595 </r>
       <r>     0.5849     3.1563     1.1668 </r>
       <r>     0.6189     3.2512     1.2774 </r>
       <r>     0.6529     3.8489     1.4083 </r>
       <r>     0.6869     4.8410     1.5730 </r>
       <r>     0.7210     5.5707     1.7624 </r>
       <r>     0.7550     5.3974     1.9460 </r>
       <r>     0.7890     4.3228     2.0930 </r>
       <r>     0.8230     2.9993     2.1950 </r>
       <r>     0.8570     2.1614     2.2685 </r>
       <r>     0.8910     2.0868     2.3395 </r>
       <r>     0.9250     2.4914     2.4243 </r>
       <r>     0.9590     2.8138     2.5200 </r>
       <r>     0.9930     2.6472     2.6100 </r>
       <r>     1.0271     2.0048     2.6782 </r>
       <r>     1.0611     1.2127     2.7194 </r>
       <r>     1.0951     0.5848     2.7393 </r>
       <r>     1.1291     0.2248     2.7470 </r>
       <r>     1.1631     0.0688     2.7493 </r>
       <r>     1.1971     0.0168     2.7499 </r>
       <r>     1.2311     0.0036     2.7500 </r>
       <r>     1.2651     0.0028     2.7501 </r>
       <r>     1.2991     0.0135     2.7505 </r>
       <r>     1.3332     0.0636     2.7527 </r>
       <r>     1.3672     0.2440     2.7610 </r>
       <r>     1.4012     0.7591     2.7868 </r>
       <r>     1.4352     1.9221     2.8522 </r>
       <r>     1.4692     3.9729     2.9873 </r>
       <r>     1.5032     6.7208     3.2159 </r>
       <r>     1.5372     9.3279     3.5332 </r>
       <r>     1.5712    10.6629     3.8958 </r>
       <r>     1.6052    10.1456     4.2409 </r>
       <r>     1.6393     8.3003     4.5232 </r>
       <r>     1.6733     6.3624     4.7396 </r>
       <r>     1.7073     5.2899     4.9195 </r>
       <r>     1.7413     5.1401     5.0943 </r>
       <r>     1.7753     5.2671     5.2734 </r>
       <r>     1.8093     4.9875     5.4431 </r>
       <r>     1.8433     4.1105     5.5829 </r>
       <r>     1.8773     2.9833     5.6843 </r>
       <r>     1.9113     2.1048     5.7559 </r>
       <r>     1.9453     1.6948     5.8136 </r>
       <r>     1.9794     1.5959     5.8678 </r>
       <r>     2.0134     1.5345     5.9200 </r>
       <r>     2.0474     1.4432     5.9691 </r>
       <r>     2.0814     1.5360     6.0214 </r>
       <r>     2.1154     2.0874     6.0924 </r>
       <r>     2.1494     3.1327     6.1989 </r>
       <r>     2.1834     4.3846     6.3480 </r>
       <r>     2.2174     5.4839     6.5345 </r>
       <r>     2.2514     6.3292     6.7498 </r>
       <r>     2.2855     7.0755     6.9904 </r>
       <r>     2.3195     7.8330     7.2569 </r>
       <r>     2.3535     8.5537     7.5478 </r>
       <r>     2.3875     9.2447     7.8622 </r>
       <r>     2.4215    10.0454     8.2038 </r>
       <r>     2.4555    10.9276     8.5755 </r>
       <r>     2.4895    11.4864     8.9662 </r>
       <r>     2.5235    11.2775     9.3497 </r>
       <r>     2.5575    10.3972     9.7034 </r>
       <r>     2.5916     9.6034    10.0300 </r>
       <r>     2.6256     9.7565    10.3618 </r>
       <r>     2.6596    11.0709    10.7383 </r>
       <r>     2.6936    12.8708    11.1761 </r>
       <r>     2.7276    14.1162    11.6562 </r>
       <r>     2.7616    14.2445    12.1407 </r>
       <r>     2.7956    13.5017    12.5999 </r>
       <r>     2.8296    12.4971    13.0249 </r>
       <r>     2.8636    11.6722    13.4219 </r>
       <r>     2.8977    11.3169    13.8068 </r>
       <r>     2.9317    11.7613    14.2068 </r>
       <r>     2.9657    13.1647    14.6545 </r>
       <r>     2.9997    15.2341    15.1727 </r>
       <r>     3.0337    17.4584    15.7665 </r>
       <r>     3.0677    19.5641    16.4318 </r>
       <r>     3.1017    21.5627    17.1652 </r>
       <r>     3.1357    23.4682    17.9634 </r>
       <r>     3.1697    25.2353    18.8217 </r>
       <r>     3.2038    27.0331    19.7411 </r>
       <r>     3.2378    29.3153    20.7381 </r>
       <r>     3.2718    32.3166    21.8372 </r>
       <r>     3.3058    35.5360    23.0459 </r>
       <r>     3.3398    37.9640    24.3371 </r>
       <r>     3.3738    38.7913    25.6564 </r>
       <r>     3.4078    37.7598    26.9406 </r>
       <r>     3.4418    35.0348    28.1322 </r>
       <r>     3.4758    31.1277    29.1909 </r>
       <r>     3.5099    26.9794    30.1085 </r>
       <r>     3.5439    23.7806    30.9173 </r>
       <r>     3.5779    22.4149    31.6796 </r>
       <r>     3.6119    23.0241    32.4627 </r>
       <r>     3.6459    25.1156    33.3169 </r>
       <r>     3.6799    27.9977    34.2691 </r>
       <r>     3.7139    31.0415    35.3249 </r>
       <r>     3.7479    33.6179    36.4683 </r>
       <r>     3.7819    34.9538    37.6571 </r>
       <r>     3.8160    34.2091    38.8206 </r>
       <r>     3.8500    30.8855    39.8710 </r>
       <r>     3.8840    25.3745    40.7340 </r>
       <r>     3.9180    19.1696    41.3860 </r>
       <r>     3.9520    14.3393    41.8737 </r>
       <r>     3.9860    12.4425    42.2969 </r>
       <r>     4.0200    13.6795    42.7621 </r>
       <r>     4.0540    16.9606    43.3390 </r>
       <r>     4.0880    20.7500    44.0447 </r>
       <r>     4.1221    23.8782    44.8568 </r>
       <r>     4.1561    25.7809    45.7337 </r>
       <r>     4.1901    26.4014    46.6316 </r>
       <r>     4.2241    26.2096    47.5230 </r>
       <r>     4.2581    26.2183    48.4147 </r>
       <r>     4.2921    27.5349    49.3512 </r>
       <r>     4.3261    30.4740    50.3877 </r>
       <r>     4.3601    33.9938    51.5438 </r>
       <r>     4.3941    36.2204    52.7757 </r>
       <r>     4.4282    35.8390    53.9947 </r>
       <r>     4.4622    33.1043    55.1206 </r>
       <r>     4.4962    29.5535    56.1257 </r>
       <r>     4.5302    26.9070    57.0408 </r>
       <r>     4.5642    26.1875    57.9315 </r>
       <r>     4.5982    27.3470    58.8616 </r>
       <r>     4.6322    29.3159    59.8587 </r>
       <r>     4.6662    30.6131    60.8999 </r>
       <r>     4.7002    30.3036    61.9305 </r>
       <r>     4.7343    28.5545    62.9017 </r>
       <r>     4.7683    26.4184    63.8002 </r>
       <r>     4.8023    25.1711    64.6563 </r>
       <r>     4.8363    25.6357    65.5282 </r>
       <r>     4.8703    27.7655    66.4725 </r>
       <r>     4.9043    30.7500    67.5184 </r>
       <r>     4.9383    33.6337    68.6623 </r>
       <r>     4.9723    35.8526    69.8817 </r>
       <r>     5.0063    37.1675    71.1458 </r>
       <r>     5.0404    37.3372    72.4156 </r>
       <r>     5.0744    36.1568    73.6454 </r>
       <r>     5.1084    33.7808    74.7943 </r>
       <r>     5.1424    30.8296    75.8428 </r>
       <r>     5.1764    28.1374    76.7998 </r>
       <r>     5.2104    26.3598    77.6963 </r>
       <r>     5.2444    25.7071    78.5707 </r>
       <r>     5.2784    26.0181    79.4556 </r>
       <r>     5.3124    27.0601    80.3759 </r>
       <r>     5.3464    28.6352    81.3498 </r>
       <r>     5.3805    30.4036    82.3839 </r>
       <r>     5.4145    31.8107    83.4658 </r>
       <r>     5.4485    32.3434    84.5658 </r>
       <r>     5.4825    31.8479    85.6490 </r>
       <r>     5.5165    30.5986    86.6897 </r>
       <r>     5.5505    29.1357    87.6806 </r>
       <r>     5.5845    28.0319    88.6340 </r>
       <r>     5.6185    27.6995    89.5761 </r>
       <r>     5.6525    28.3417    90.5400 </r>
       <r>     5.6866    29.9805    91.5597 </r>
       <r>     5.7206    32.3474    92.6599 </r>
       <r>     5.7546    34.7216    93.8408 </r>
       <r>     5.7886    36.0696    95.0675 </r>
       <r>     5.8226    35.5154    96.2755 </r>
       <r>     5.8566    32.7967    97.3909 </r>
       <r>     5.8906    28.4824    98.3596 </r>
       <r>     5.9246    23.9187    99.1731 </r>
       <r>     5.9586    20.7535    99.8790 </r>
       <r>     5.9927    20.0204   100.5599 </r>
       <r>     6.0267    21.4109   101.2881 </r>
       <r>     6.0607    23.5603   102.0894 </r>
       <r>     6.0947    25.2013   102.9465 </r>
       <r>     6.1287    26.0360   103.8320 </r>
       <r>     6.1627    26.5162   104.7339 </r>
       <r>     6.1967    26.9788   105.6514 </r>
       <r>     6.2307    27.2556   106.5784 </r>
       <r>     6.2647    27.1806   107.5029 </r>
       <r>     6.2988    27.1247   108.4254 </r>
       <r>     6.3328    27.5922   109.3639 </r>
       <r>     6.3668    28.3095   110.3267 </r>
       <r>     6.4008    28.1587   111.2844 </r>
       <r>     6.4348    26.3423   112.1803 </r>
       <r>     6.4688    23.4695   112.9785 </r>
       <r>     6.5028    21.1313   113.6972 </r>
       <r>     6.5368    20.3790   114.3903 </r>
       <r>     6.5708    20.9023   115.1013 </r>
       <r>     6.6049    21.7166   115.8399 </r>
       <r>     6.6389    22.2317   116.5960 </r>
       <r>     6.6729    22.3806   117.3572 </r>
       <r>     6.7069    22.0792   118.1081 </r>
       <r>     6.7409    21.1228   118.8265 </r>
       <r>     6.7749    19.6241   119.4939 </r>
       <r>     6.8089    18.1627   120.1117 </r>
       <r>     6.8429    17.3507   120.7018 </r>
       <r>     6.8769    17.3627   121.2923 </r>
       <r>     6.9110    17.9361   121.9023 </r>
       <r>     6.9450    18.8393   122.5431 </r>
       <r>     6.9790    20.3269   123.2344 </r>
       <r>     7.0130    22.9273   124.0142 </r>
       <r>     7.0470    26.5753   124.9181 </r>
       <r>     7.0810    30.1250   125.9426 </r>
       <r>     7.1150    32.0792   127.0337 </r>
       <r>     7.1490    31.9472   128.1202 </r>
       <r>     7.1830    30.7568   129.1663 </r>
       <r>     7.2171    30.0298   130.1876 </r>
       <r>     7.2511    30.2174   131.2154 </r>
       <r>     7.2851    30.2545   132.2444 </r>
       <r>     7.3191    28.6053   133.2173 </r>
       <r>     7.3531    24.6053   134.0541 </r>
       <r>     7.3871    18.9384   134.6982 </r>
       <r>     7.4211    13.1284   135.1447 </r>
       <r>     7.4551     8.5598   135.4359 </r>
       <r>     7.4891     5.7022   135.6298 </r>
       <r>     7.5232     4.0886   135.7689 </r>
       <r>     7.5572     2.9745   135.8700 </r>
       <r>     7.5912     1.9687   135.9370 </r>
       <r>     7.6252     1.0999   135.9744 </r>
       <r>     7.6592     0.5009   135.9914 </r>
       <r>     7.6932     0.1834   135.9977 </r>
       <r>     7.7272     0.0537   135.9995 </r>
       <r>     7.7612     0.0125   135.9999 </r>
       <r>     7.7952     0.0023   136.0000 </r>
       <r>     7.8293     0.0003   136.0000 </r>
       <r>     7.8633     0.0000   136.0000 </r>
       <r>     7.8973     0.0000   136.0000 </r>
       <r>     7.9313     0.0000   136.0000 </r>
       <r>     7.9653     0.0000   136.0000 </r>
       <r>     7.9993     0.0000   136.0000 </r>
       <r>     8.0333     0.0000   136.0000 </r>
       <r>     8.0673     0.0000   136.0000 </r>
       <r>     8.1013     0.0000   136.0000 </r>
       <r>     8.1354     0.0000   136.0000 </r>
       <r>     8.1694     0.0000   136.0000 </r>
       <r>     8.2034     0.0000   136.0000 </r>
       <r>     8.2374     0.0000   136.0000 </r>
       <r>     8.2714     0.0000   136.0000 </r>
       <r>     8.3054     0.0000   136.0000 </r>
       <r>     8.3394     0.0000   136.0000 </r>
       <r>     8.3734     0.0000   136.0000 </r>
       <r>     8.4074     0.0000   136.0000 </r>
       <r>     8.4415     0.0000   136.0000 </r>
       <r>     8.4755     0.0000   136.0000 </r>
       <r>     8.5095     0.0000   136.0000 </r>
      </set>
     </set>
    </array>
   </total>
  </dos>
 </calculation>
 <structure name="finalpos" >
  <crystal>
   <varray name="basis" >
    <v>       5.59133517       0.00000000       0.00000000 </v>
    <v>      -0.00000000       5.59133517      -0.00000000 </v>
    <v>       0.00000000       0.00000000       8.39789958 </v>
   </varray>
   <i name="volume">    262.54377824 </i>
   <varray name="rec_basis" >
    <v>       0.17884816       0.00000000      -0.00000000 </v>
    <v>      -0.00000000       0.17884816      -0.00000000 </v>
    <v>      -0.00000000       0.00000000       0.11907739 </v>
   </varray>
  </crystal>
  <varray name="positions" >
   <v>       0.00000000       0.00000000       0.62087014 </v>
   <v>       0.24913313       0.74819862       0.79596056 </v>
   <v>       0.75086687       0.25180138       0.79596056 </v>
   <v>       0.25180138       0.24913313       0.79596056 </v>
   <v>       0.74819862       0.75086687       0.79596056 </v>
   <v>       0.30186059       0.79593594       0.43448602 </v>
   <v>       0.69813941       0.20406406       0.43448602 </v>
   <v>       0.20406406       0.30186059       0.43448602 </v>
   <v>       0.79593594       0.69813941       0.43448602 </v>
   <v>       0.50000000       0.50000000      -0.01997956 </v>
   <v>       0.00000000       0.50000000      -0.00202400 </v>
   <v>       0.50000000       0.00000000      -0.00202400 </v>
   <v>       0.30759924       0.19285739       0.19298714 </v>
   <v>       0.69240076       0.80714261       0.19298714 </v>
   <v>       0.80714261       0.30759924       0.19298714 </v>
   <v>       0.19285739       0.69240076       0.19298714 </v>
   <v>       0.00000000       0.00000000      -0.01447722 </v>
   <v>       0.50000000       0.50000000       0.62855097 </v>
   <v>       0.00000000       0.50000000       0.63182092 </v>
   <v>       0.50000000       0.00000000       0.63182092 </v>
  </varray>
 </structure>
</modeling>
