unknown system                          
           1
     5.861746    0.000000    0.000000
     0.000000    5.861746    0.000000
     0.000000    0.000000    7.539918
   V    Fe
  17   3
Direct configuration=     1
   0.00000000  0.00000000  0.33705500
   0.17088300  0.79936700  0.60907200
   0.82911700  0.20063300  0.60907200
   0.20063300  0.17088300  0.60907200
   0.79936700  0.82911700  0.60907200
   0.39269400  0.69277900  0.45030500
   0.60730600  0.30722100  0.45030500
   0.30722100  0.39269400  0.45030500
   0.69277900  0.60730600  0.45030500
   0.50000000  0.50000000  0.00414100
   0.00000000  0.50000000  0.07111700
   0.50000000  0.00000000  0.07111700
   0.40138800  0.16730200  0.29247500
   0.59861200  0.83269800  0.29247500
   0.83269800  0.40138800  0.29247500
   0.16730200  0.59861200  0.29247500
   0.00000000  0.00000000  0.00240000
   0.50000000  0.50000000  0.72303900
   0.00000000  0.50000000  0.77600800
   0.50000000  0.00000000  0.77600800
unknown system                          
           1
     6.637901    0.000000    0.000000
    -0.000000    6.637901    0.000000
     0.000000   -0.000000    8.425549
   V    Fe
  17   3
Direct configuration=     2
   0.00000000 -0.00000000  0.31767726
   0.15739482  0.79153698  0.63527125
   0.84260518  0.20846302  0.63527125
   0.20846302  0.15739482  0.63527125
   0.79153698  0.84260518  0.63527125
   0.38876326  0.75029460  0.46286648
   0.61123674  0.24970540  0.46286648
   0.24970540  0.38876326  0.46286648
   0.75029460  0.61123674  0.46286648
   0.50000000  0.50000000  0.00093699
   0.00000000  0.50000000  0.04604424
   0.50000000 -0.00000000  0.04604424
   0.37204379  0.15357327  0.26544130
   0.62795621  0.84642673  0.26544130
   0.84642673  0.37204379  0.26544130
   0.15357327  0.62795621  0.26544130
   0.00000000 -0.00000000 -0.00200028
   0.50000000  0.50000000  0.75430397
   0.00000000  0.50000000  0.77548522
   0.50000000 -0.00000000  0.77548522
unknown system                          
           1
     6.435708    0.000000    0.000000
    -0.000000    6.435708    0.000000
     0.000000   -0.000000    8.194837
   V    Fe
  17   3
Direct configuration=     3
   0.00000000 -0.00000000  0.32219467
   0.16049772  0.79333824  0.62916359
   0.83950228  0.20666176  0.62916359
   0.20666176  0.16049772  0.62916359
   0.79333824  0.83950228  0.62916359
   0.38966751  0.73706338  0.45993810
   0.61033249  0.26293662  0.45993810
   0.26293662  0.38966751  0.45993810
   0.73706338  0.61033249  0.45993810
   0.50000000  0.50000000  0.00168392
   0.00000000  0.50000000  0.05188930
   0.50000000 -0.00000000  0.05188930
   0.37879430  0.15673151  0.27174350
   0.62120570  0.84326849  0.27174350
   0.84326849  0.37879430  0.27174350
   0.15673151  0.62120570  0.27174350
   0.00000000 -0.00000000 -0.00097447
   0.50000000  0.50000000  0.74701536
   0.00000000  0.50000000  0.77560710
   0.50000000 -0.00000000  0.77560710
unknown system                          
           1
     6.399422    0.000000    0.000000
    -0.000000    6.399422    0.000000
     0.000000   -0.000000    8.153433
   V    Fe
  17   3
Direct configuration=     4
   0.00000000 -0.00000000  0.32302820
   0.16107207  0.79367166  0.62803663
   0.83892793  0.20632834  0.62803663
   0.20632834  0.16107207  0.62803663
   0.79367166  0.83892793  0.62803663
   0.38983489  0.73461427  0.45939777
   0.61016511  0.26538573  0.45939777
   0.26538573  0.38983489  0.45939777
   0.73461427  0.61016511  0.45939777
   0.50000000  0.50000000  0.00182174
   0.00000000  0.50000000  0.05296780
   0.50000000 -0.00000000  0.05296780
   0.38004383  0.15731610  0.27290635
   0.61995617  0.84268390  0.27290635
   0.84268390  0.38004383  0.27290635
   0.15731610  0.61995617  0.27290635
   0.00000000 -0.00000000 -0.00078519
   0.50000000  0.50000000  0.74567051
   0.00000000  0.50000000  0.77562958
   0.50000000 -0.00000000  0.77562958
unknown system                          
           1
     6.211984    0.000000    0.000000
    -0.000000    6.211984    0.000000
     0.000000   -0.000000    7.858043
   V    Fe
  17   3
Direct configuration=     5
   0.00000000 -0.00000000  0.31838614
   0.15389548  0.78261972  0.63987526
   0.84610452  0.21738028  0.63987526
   0.21738028  0.15389548  0.63987526
   0.78261972  0.84610452  0.63987526
   0.39326400  0.76671953  0.46798005
   0.60673600  0.23328047  0.46798005
   0.23328047  0.39326400  0.46798005
   0.76671953  0.60673600  0.46798005
   0.50000000  0.50000000 -0.00380304
   0.00000000  0.50000000  0.03766886
   0.50000000 -0.00000000  0.03766886
   0.36097356  0.15608273  0.26113021
   0.63902644  0.84391727  0.26113021
   0.84391727  0.36097356  0.26113021
   0.15608273  0.63902644  0.26113021
   0.00000000 -0.00000000  0.00016084
   0.50000000  0.50000000  0.75679204
   0.00000000  0.50000000  0.77273862
   0.50000000 -0.00000000  0.77273862
unknown system                          
           1
     6.041240    0.000000    0.000000
    -0.000000    6.041240    0.000000
     0.000000   -0.000000    7.588960
   V    Fe
  17   3
Direct configuration=     6
   0.00000000 -0.00000000  0.31399853
   0.14716076  0.77224828  0.65106495
   0.85283924  0.22775172  0.65106495
   0.22775172  0.14716076  0.65106495
   0.77224828  0.85283924  0.65106495
   0.39648197  0.79684799  0.47609188
   0.60351803  0.20315201  0.47609188
   0.20315201  0.39648197  0.47609188
   0.79684799  0.60351803  0.47609188
   0.50000000  0.50000000 -0.00911949
   0.00000000  0.50000000  0.02320854
   0.50000000 -0.00000000  0.02320854
   0.34307748  0.15492530  0.24999959
   0.65692252  0.84507470  0.24999959
   0.84507470  0.34307748  0.24999959
   0.15492530  0.65692252  0.24999959
   0.00000000 -0.00000000  0.00105501
   0.50000000  0.50000000  0.76730395
   0.00000000  0.50000000  0.77000612
   0.50000000 -0.00000000  0.77000612
unknown system                          
           1
     6.090819    0.000000    0.000000
    -0.000000    6.090819    0.000000
     0.000000   -0.000000    7.667094
   V    Fe
  17   3
Direct configuration=     7
   0.00000000 -0.00000000  0.31531773
   0.14917158  0.77534494  0.64770060
   0.85082842  0.22465506  0.64770060
   0.22465506  0.14917158  0.64770060
   0.77534494  0.85082842  0.64770060
   0.39552116  0.78785236  0.47365294
   0.60447884  0.21214764  0.47365294
   0.21214764  0.39552116  0.47365294
   0.78785236  0.60447884  0.47365294
   0.50000000  0.50000000 -0.00752102
   0.00000000  0.50000000  0.02755625
   0.50000000 -0.00000000  0.02755625
   0.34842082  0.15527088  0.25334617
   0.65157918  0.84472912  0.25334617
   0.84472912  0.34842082  0.25334617
   0.15527088  0.65157918  0.25334617
   0.00000000 -0.00000000  0.00078617
   0.50000000  0.50000000  0.76414339
   0.00000000  0.50000000  0.77082769
   0.50000000 -0.00000000  0.77082769
unknown system                          
           1
     6.111275    0.000000   -0.000000
    -0.000000    6.111275    0.000000
    -0.000000   -0.000000    7.797772
   V    Fe
  17   3
Direct configuration=     8
   0.00000000 -0.00000000  0.32276251
   0.15350319  0.77180923  0.65851164
   0.84649681  0.22819077  0.65851164
   0.22819077  0.15350319  0.65851164
   0.77180923  0.84649681  0.65851164
   0.40311731  0.80101330  0.47445257
   0.59688269  0.19898670  0.47445257
   0.19898670  0.40311731  0.47445257
   0.80101330  0.59688269  0.47445257
   0.50000000  0.50000000  0.00280172
   0.00000000  0.50000000  0.02140912
   0.50000000 -0.00000000  0.02140912
   0.33106278  0.16531489  0.24535489
   0.66893722  0.83468511  0.24535489
   0.83468511  0.33106278  0.24535489
   0.16531489  0.66893722  0.24535489
   0.00000000 -0.00000000  0.00274556
   0.50000000  0.50000000  0.75403925
   0.00000000  0.50000000  0.76492467
   0.50000000 -0.00000000  0.76492467
unknown system                          
           1
     6.132730    0.000000   -0.000000
    -0.000000    6.132730    0.000000
    -0.000000   -0.000000    7.934831
   V    Fe
  17   3
Direct configuration=     9
   0.00000000 -0.00000000  0.33043993
   0.15803109  0.76811330  0.66966052
   0.84196891  0.23188670  0.66966052
   0.23188670  0.15803109  0.66966052
   0.76811330  0.84196891  0.66966052
   0.41105769  0.81477065  0.47527719
   0.58894231  0.18522935  0.47527719
   0.18522935  0.41105769  0.47527719
   0.81477065  0.58894231  0.47527719
   0.50000000  0.50000000  0.01344705
   0.00000000  0.50000000  0.01506988
   0.50000000 -0.00000000  0.01506988
   0.31291813  0.17581407  0.23711388
   0.68708187  0.82418593  0.23711388
   0.82418593  0.31291813  0.23711388
   0.17581407  0.68708187  0.23711388
   0.00000000 -0.00000000  0.00476618
   0.50000000  0.50000000  0.74361935
   0.00000000  0.50000000  0.75883718
   0.50000000 -0.00000000  0.75883718
unknown system                          
           1
     6.029542    0.000000   -0.000000
    -0.000000    6.029542    0.000000
    -0.000000   -0.000000    7.876034
   V    Fe
  17   3
Direct configuration=    10
   0.00000000 -0.00000000  0.34730254
   0.16649474  0.77083328  0.67934353
   0.83350526  0.22916672  0.67934353
   0.22916672  0.16649474  0.67934353
   0.77083328  0.83350526  0.67934353
   0.41849706  0.82048358  0.47187992
   0.58150294  0.17951642  0.47187992
   0.17951642  0.41849706  0.47187992
   0.82048358  0.58150294  0.47187992
   0.50000000  0.50000000  0.01708922
   0.00000000  0.50000000  0.01515403
   0.50000000 -0.00000000  0.01515403
   0.30245554  0.18620071  0.22864326
   0.69754446  0.81379929  0.22864326
   0.81379929  0.30245554  0.22864326
   0.18620071  0.69754446  0.22864326
   0.00000000 -0.00000000  0.00927764
   0.50000000  0.50000000  0.73605496
   0.00000000  0.50000000  0.75439689
   0.50000000 -0.00000000  0.75439689
unknown system                          
           1
     5.927200    0.000000   -0.000000
    -0.000000    5.927200    0.000000
    -0.000000   -0.000000    7.817719
   V    Fe
  17   3
Direct configuration=    11
   0.00000000 -0.00000000  0.36415174
   0.17503266  0.77357712  0.68901884
   0.82496734  0.22642288  0.68901884
   0.22642288  0.17503266  0.68901884
   0.77357712  0.82496734  0.68901884
   0.42600171  0.82624665  0.46848535
   0.57399829  0.17375335  0.46848535
   0.17375335  0.42600171  0.46848535
   0.82624665  0.57399829  0.46848535
   0.50000000  0.50000000  0.02072849
   0.00000000  0.50000000  0.01523811
   0.50000000 -0.00000000  0.01523811
   0.29190115  0.19667851  0.22017936
   0.70809885  0.80332149  0.22017936
   0.80332149  0.29190115  0.22017936
   0.19667851  0.70809885  0.22017936
   0.00000000 -0.00000000  0.01378551
   0.50000000  0.50000000  0.72849658
   0.00000000  0.50000000  0.74996012
   0.50000000 -0.00000000  0.74996012
unknown system                          
           1
     5.950378    0.000000   -0.000000
    -0.000000    5.950378    0.000000
    -0.000000   -0.000000    7.881177
   V    Fe
  17   3
Direct configuration=    12
   0.00000000 -0.00000000  0.39403641
   0.18608508  0.78220536  0.69873651
   0.81391492  0.21779464  0.69873651
   0.21779464  0.18608508  0.69873651
   0.78220536  0.81391492  0.69873651
   0.43308033  0.82045839  0.45912891
   0.56691967  0.17954161  0.45912891
   0.17954161  0.43308033  0.45912891
   0.82045839  0.56691967  0.45912891
   0.50000000  0.50000000  0.01767464
   0.00000000  0.50000000  0.01931238
   0.50000000 -0.00000000  0.01931238
   0.28508736  0.20648549  0.20992626
   0.71491264  0.79351451  0.20992626
   0.79351451  0.28508736  0.20992626
   0.20648549  0.71491264  0.20992626
   0.00000000 -0.00000000  0.01794129
   0.50000000  0.50000000  0.72318143
   0.00000000  0.50000000  0.75283387
   0.50000000 -0.00000000  0.75283387
unknown system                          
           1
     5.964868    0.000000   -0.000000
    -0.000000    5.964868    0.000000
    -0.000000   -0.000000    7.920848
   V    Fe
  17   3
Direct configuration=    13
   0.00000000 -0.00000000  0.41256825
   0.19296753  0.78757826  0.70476255
   0.80703247  0.21242174  0.70476255
   0.21242174  0.19296753  0.70476255
   0.78757826  0.80703247  0.70476255
   0.43748825  0.81685399  0.45332688
   0.56251175  0.18314601  0.45332688
   0.18314601  0.43748825  0.45332688
   0.81685399  0.56251175  0.45332688
   0.50000000  0.50000000  0.01578091
   0.00000000  0.50000000  0.02183888
   0.50000000 -0.00000000  0.02183888
   0.28084435  0.21259241  0.20356818
   0.71915565  0.78740759  0.20356818
   0.78740759  0.28084435  0.20356818
   0.21259241  0.71915565  0.20356818
   0.00000000 -0.00000000  0.02051834
   0.50000000  0.50000000  0.71988545
   0.00000000  0.50000000  0.75461592
   0.50000000 -0.00000000  0.75461592
unknown system                          
           1
     5.930562    0.000000    0.000000
    -0.000000    5.930562    0.000000
     0.000000   -0.000000    7.787890
   V    Fe
  17   3
Direct configuration=    14
   0.00000000 -0.00000000  0.42230277
   0.19853530  0.78633888  0.70686116
   0.80146470  0.21366112  0.70686116
   0.21366112  0.19853530  0.70686116
   0.78633888  0.80146470  0.70686116
   0.44134719  0.81091443  0.44839234
   0.55865281  0.18908557  0.44839234
   0.18908557  0.44134719  0.44839234
   0.81091443  0.55865281  0.44839234
   0.50000000  0.50000000  0.00777685
   0.00000000  0.50000000  0.02374449
   0.50000000 -0.00000000  0.02374449
   0.27981842  0.21360382  0.20482615
   0.72018158  0.78639618  0.20482615
   0.78639618  0.27981842  0.20482615
   0.21360382  0.72018158  0.20482615
   0.00000000 -0.00000000  0.01949432
   0.50000000  0.50000000  0.71923965
   0.00000000  0.50000000  0.75583592
   0.50000000 -0.00000000  0.75583592
unknown system                          
           1
     5.918426    0.000000    0.000000
    -0.000000    5.918426   -0.000000
     0.000000   -0.000000    7.740853
   V    Fe
  17   3
Direct configuration=    15
   0.00000000 -0.00000000  0.42580537
   0.20051642  0.78589788  0.70761627
   0.79948358  0.21410212  0.70761627
   0.21410212  0.20051642  0.70761627
   0.78589788  0.79948358  0.70761627
   0.44272028  0.80880102  0.44661683
   0.55727972  0.19119898  0.44661683
   0.19119898  0.44272028  0.44661683
   0.80880102  0.55727972  0.44661683
   0.50000000  0.50000000  0.00489689
   0.00000000  0.50000000  0.02443016
   0.50000000 -0.00000000  0.02443016
   0.27945337  0.21396370  0.20527878
   0.72054663  0.78603630  0.20527878
   0.78603630  0.27945337  0.20527878
   0.21396370  0.72054663  0.20527878
   0.00000000 -0.00000000  0.01912587
   0.50000000  0.50000000  0.71900728
   0.00000000  0.50000000  0.75627489
   0.50000000 -0.00000000  0.75627489
unknown system                          
           1
     5.991019    0.000000    0.000000
    -0.000000    5.991019   -0.000000
     0.000000   -0.000000    7.698684
   V    Fe
  17   3
Direct configuration=    16
   0.00000000  0.00000000  0.43268620
   0.20650720  0.78187557  0.70879488
   0.79349280  0.21812443  0.70879488
   0.21812443  0.20650720  0.70879488
   0.78187557  0.79349280  0.70879488
   0.44732005  0.80412296  0.44287612
   0.55267995  0.19587704  0.44287612
   0.19587704  0.44732005  0.44287612
   0.80412296  0.55267995  0.44287612
   0.50000000  0.50000000 -0.00530711
   0.00000000  0.50000000  0.02768916
   0.50000000  0.00000000  0.02768916
   0.27884420  0.21366718  0.20860612
   0.72115580  0.78633282  0.20860612
   0.78633282  0.27884420  0.20860612
   0.21366718  0.72115580  0.20860612
   0.00000000  0.00000000  0.01518696
   0.50000000  0.50000000  0.71750596
   0.00000000  0.50000000  0.75586709
   0.50000000  0.00000000  0.75586709
unknown system                          
           1
     5.995165    0.000000    0.000000
    -0.000000    5.995165   -0.000000
     0.000000   -0.000000    7.696275
   V    Fe
  17   3
Direct configuration=    17
   0.00000000  0.00000000  0.43308135
   0.20684522  0.78164862  0.70886257
   0.79315478  0.21835138  0.70886257
   0.21835138  0.20684522  0.70886257
   0.78164862  0.79315478  0.70886257
   0.44757959  0.80385901  0.44266130
   0.55242041  0.19614099  0.44266130
   0.19614099  0.44757959  0.44266130
   0.80385901  0.55242041  0.44266130
   0.50000000  0.50000000 -0.00589311
   0.00000000  0.50000000  0.02787631
   0.50000000  0.00000000  0.02787631
   0.27880983  0.21365045  0.20879721
   0.72119017  0.78634955  0.20879721
   0.78634955  0.27880983  0.20879721
   0.21365045  0.72119017  0.20879721
   0.00000000  0.00000000  0.01496075
   0.50000000  0.50000000  0.71741974
   0.00000000  0.50000000  0.75584367
   0.50000000  0.00000000  0.75584367
unknown system                          
           1
     6.010034    0.000000    0.000000
    -0.000000    6.010034   -0.000000
     0.000000   -0.000000    7.665719
   V    Fe
  17   3
Direct configuration=    18
   0.00000000  0.00000000  0.43289819
   0.20845670  0.77967567  0.70892551
   0.79154330  0.22032433  0.70892551
   0.22032433  0.20845670  0.70892551
   0.77967567  0.79154330  0.70892551
   0.44908365  0.80574875  0.44412772
   0.55091635  0.19425125  0.44412772
   0.19425125  0.44908365  0.44412772
   0.80574875  0.55091635  0.44412772
   0.50000000  0.50000000 -0.00720375
   0.00000000  0.50000000  0.03018417
   0.50000000  0.00000000  0.03018417
   0.27758039  0.21306989  0.20894907
   0.72241961  0.78693011  0.20894907
   0.78693011  0.27758039  0.20894907
   0.21306989  0.72241961  0.20894907
   0.00000000  0.00000000  0.01320535
   0.50000000  0.50000000  0.71414465
   0.00000000  0.50000000  0.75343552
   0.50000000  0.00000000  0.75343552
unknown system                          
           1
     6.035148    0.000000    0.000000
    -0.000000    6.035148   -0.000000
     0.000000   -0.000000    7.614110
   V    Fe
  17   3
Direct configuration=    19
   0.00000000 -0.00000000  0.43258761
   0.21117171  0.77635165  0.70903225
   0.78882829  0.22364835  0.70903225
   0.22364835  0.21117171  0.70903225
   0.77635165  0.78882829  0.70903225
   0.45161769  0.80893258  0.44661434
   0.54838231  0.19106742  0.44661434
   0.19106742  0.45161769  0.44661434
   0.80893258  0.54838231  0.44661434
   0.50000000  0.50000000 -0.00942623
   0.00000000  0.50000000  0.03409763
   0.50000000 -0.00000000  0.03409763
   0.27550903  0.21209175  0.20920658
   0.72449097  0.78790825  0.20920658
   0.78790825  0.27550903  0.20920658
   0.21209175  0.72449097  0.20920658
   0.00000000 -0.00000000  0.01022870
   0.50000000  0.50000000  0.70859103
   0.00000000  0.50000000  0.74935198
   0.50000000 -0.00000000  0.74935198
unknown system                          
           1
     6.037559    0.000000    0.000000
    -0.000000    6.037559   -0.000000
     0.000000   -0.000000    7.533195
   V    Fe
  17   3
Direct configuration=    20
   0.00000000 -0.00000000  0.43167814
   0.21152098  0.77556443  0.71080703
   0.78847902  0.22443557  0.71080703
   0.22443557  0.21152098  0.71080703
   0.77556443  0.78847902  0.71080703
   0.45253350  0.80958404  0.44615576
   0.54746650  0.19041596  0.44615576
   0.19041596  0.45253350  0.44615576
   0.80958404  0.54746650  0.44615576
   0.50000000  0.50000000 -0.00841472
   0.00000000  0.50000000  0.03526888
   0.50000000 -0.00000000  0.03526888
   0.27318185  0.21272517  0.20922477
   0.72681815  0.78727483  0.20922477
   0.78727483  0.27318185  0.20922477
   0.21272517  0.72681815  0.20922477
   0.00000000 -0.00000000  0.00904203
   0.50000000  0.50000000  0.70404015
   0.00000000  0.50000000  0.74832970
   0.50000000 -0.00000000  0.74832970
unknown system                          
           1
     6.039660    0.000000    0.000000
    -0.000000    6.039660   -0.000000
     0.000000   -0.000000    7.462686
   V    Fe
  17   3
Direct configuration=    21
   0.00000000 -0.00000000  0.43087711
   0.21182520  0.77487872  0.71237018
   0.78817480  0.22512128  0.71237018
   0.22512128  0.21182520  0.71237018
   0.77487872  0.78817480  0.71237018
   0.45333122  0.81015150  0.44575188
   0.54666878  0.18984850  0.44575188
   0.18984850  0.45333122  0.44575188
   0.81015150  0.54666878  0.44575188
   0.50000000  0.50000000 -0.00752382
   0.00000000  0.50000000  0.03630046
   0.50000000 -0.00000000  0.03630046
   0.27115476  0.21327690  0.20924078
   0.72884524  0.78672310  0.20924078
   0.78672310  0.27115476  0.20924078
   0.21327690  0.72884524  0.20924078
   0.00000000 -0.00000000  0.00799686
   0.50000000  0.50000000  0.70003193
   0.00000000  0.50000000  0.74742932
   0.50000000 -0.00000000  0.74742932
unknown system                          
           1
     6.046905    0.000000    0.000000
    -0.000000    6.046905   -0.000000
     0.000000   -0.000000    7.445174
   V    Fe
  17   3
Direct configuration=    22
   0.00000000 -0.00000000  0.43064138
   0.21186889  0.77476730  0.71309377
   0.78813111  0.22523270  0.71309377
   0.22523270  0.21186889  0.71309377
   0.77476730  0.78813111  0.71309377
   0.45355917  0.81023266  0.44547330
   0.54644083  0.18976734  0.44547330
   0.18976734  0.45355917  0.44547330
   0.81023266  0.54644083  0.44547330
   0.50000000  0.50000000 -0.00716351
   0.00000000  0.50000000  0.03664166
   0.50000000 -0.00000000  0.03664166
   0.27042119  0.21352974  0.20912596
   0.72957881  0.78647026  0.20912596
   0.78647026  0.27042119  0.20912596
   0.21352974  0.72957881  0.20912596
   0.00000000 -0.00000000  0.00764236
   0.50000000  0.50000000  0.69889326
   0.00000000  0.50000000  0.74711203
   0.50000000 -0.00000000  0.74711203
unknown system                          
           1
     6.068639    0.000000    0.000000
    -0.000000    6.068639   -0.000000
     0.000000   -0.000000    7.392641
   V    Fe
  17   3
Direct configuration=    23
   0.00000000 -0.00000000  0.42993252
   0.21199978  0.77443343  0.71526964
   0.78800022  0.22556657  0.71526964
   0.22556657  0.21199978  0.71526964
   0.77443343  0.78800022  0.71526964
   0.45424218  0.81047583  0.44463561
   0.54575782  0.18952417  0.44463561
   0.18952417  0.45424218  0.44463561
   0.81047583  0.54575782  0.44463561
   0.50000000  0.50000000 -0.00608006
   0.00000000  0.50000000  0.03766768
   0.50000000 -0.00000000  0.03766768
   0.26822315  0.21428735  0.20878069
   0.73177685  0.78571265  0.20878069
   0.78571265  0.26822315  0.20878069
   0.21428735  0.73177685  0.20878069
   0.00000000 -0.00000000  0.00657634
   0.50000000  0.50000000  0.69546922
   0.00000000  0.50000000  0.74615793
   0.50000000 -0.00000000  0.74615793
unknown system                          
           1
     6.112107    0.000000    0.000000
    -0.000000    6.112107   -0.000000
     0.000000   -0.000000    7.287574
   V    Fe
  17   3
Direct configuration=    24
   0.00000000 -0.00000000  0.42850472
   0.21226064  0.77376810  0.71965230
   0.78773936  0.22623190  0.71965230
   0.22623190  0.21226064  0.71965230
   0.77376810  0.78773936  0.71965230
   0.45560333  0.81096045  0.44294833
   0.54439667  0.18903955  0.44294833
   0.18903955  0.45560333  0.44294833
   0.81096045  0.54439667  0.44294833
   0.50000000  0.50000000 -0.00389777
   0.00000000  0.50000000  0.03973429
   0.50000000 -0.00000000  0.03973429
   0.26384279  0.21579713  0.20808524
   0.73615721  0.78420287  0.20808524
   0.78420287  0.26384279  0.20808524
   0.21579713  0.73615721  0.20808524
   0.00000000 -0.00000000  0.00442916
   0.50000000  0.50000000  0.68857247
   0.00000000  0.50000000  0.74423618
   0.50000000 -0.00000000  0.74423618
unknown system                          
           1
     6.199044   -0.000000    0.000000
     0.000000    6.199044   -0.000000
     0.000000   -0.000000    7.077441
   V    Fe
  17   3
Direct configuration=    25
   0.00000000 -0.00000000  0.42560796
   0.21277863  0.77244688  0.72854399
   0.78722137  0.22755312  0.72854399
   0.22755312  0.21277863  0.72854399
   0.77244688  0.78722137  0.72854399
   0.45830626  0.81192278  0.43952512
   0.54169374  0.18807722  0.43952512
   0.18807722  0.45830626  0.43952512
   0.81192278  0.54169374  0.43952512
   0.50000000  0.50000000  0.00052976
   0.00000000  0.50000000  0.04392711
   0.50000000 -0.00000000  0.04392711
   0.25514439  0.21879523  0.20667428
   0.74485561  0.78120477  0.20667428
   0.78120477  0.25514439  0.20667428
   0.21879523  0.74485561  0.20667428
   0.00000000 -0.00000000  0.00007288
   0.50000000  0.50000000  0.67458011
   0.00000000  0.50000000  0.74033726
   0.50000000 -0.00000000  0.74033726
unknown system                          
           1
     6.372917   -0.000000    0.000000
     0.000000    6.372917   -0.000000
     0.000000   -0.000000    6.657173
   V    Fe
  17   3
Direct configuration=    26
   0.00000000 -0.00000000  0.41964243
   0.21380010  0.76984151  0.74685537
   0.78619990  0.23015849  0.74685537
   0.23015849  0.21380010  0.74685537
   0.76984151  0.78619990  0.74685537
   0.46363630  0.81382045  0.43247542
   0.53636370  0.18617955  0.43247542
   0.18617955  0.46363630  0.43247542
   0.81382045  0.53636370  0.43247542
   0.50000000  0.50000000  0.00964772
   0.00000000  0.50000000  0.05256172
   0.50000000 -0.00000000  0.05256172
   0.23799156  0.22470734  0.20376859
   0.76200844  0.77529266  0.20376859
   0.77529266  0.23799156  0.20376859
   0.22470734  0.76200844  0.20376859
   0.00000000 -0.00000000 -0.00889837
   0.50000000  0.50000000  0.64576449
   0.00000000  0.50000000  0.73230789
   0.50000000 -0.00000000  0.73230789
unknown system                          
           1
     6.241118   -0.000000    0.000000
     0.000000    6.241118   -0.000000
     0.000000   -0.000000    6.975742
   V    Fe
  17   3
Direct configuration=    27
   0.00000000 -0.00000000  0.42444986
   0.21304694  0.77176254  0.73209882
   0.78695306  0.22823746  0.73209882
   0.22823746  0.21304694  0.73209882
   0.77176254  0.78695306  0.73209882
   0.45970628  0.81242123  0.43815655
   0.54029372  0.18757877  0.43815655
   0.18757877  0.45970628  0.43815655
   0.81242123  0.54029372  0.43815655
   0.50000000  0.50000000  0.00229985
   0.00000000  0.50000000  0.04560336
   0.50000000 -0.00000000  0.04560336
   0.25063892  0.22034814  0.20611020
   0.74936108  0.77965186  0.20611020
   0.77965186  0.25063892  0.20611020
   0.22034814  0.74936108  0.20611020
   0.00000000 -0.00000000 -0.00166873
   0.50000000  0.50000000  0.66898607
   0.00000000  0.50000000  0.73877850
   0.50000000 -0.00000000  0.73877850
unknown system                          
           1
     6.269214   -0.000000    0.000000
     0.000000    6.269214    0.000000
     0.000000   -0.000000    6.929867
   V    Fe
  17   3
Direct configuration=    28
   0.00000000 -0.00000000  0.42473487
   0.21325620  0.77187836  0.73577442
   0.78674380  0.22812164  0.73577442
   0.22812164  0.21325620  0.73577442
   0.77187836  0.78674380  0.73577442
   0.46075154  0.81195944  0.43735727
   0.53924846  0.18804056  0.43735727
   0.18804056  0.46075154  0.43735727
   0.81195944  0.53924846  0.43735727
   0.50000000  0.50000000  0.00326098
   0.00000000  0.50000000  0.04681027
   0.50000000 -0.00000000  0.04681027
   0.24846735  0.22065977  0.20490994
   0.75153265  0.77934023  0.20490994
   0.77934023  0.24846735  0.20490994
   0.22065977  0.75153265  0.20490994
   0.00000000 -0.00000000 -0.00334831
   0.50000000  0.50000000  0.66543168
   0.00000000  0.50000000  0.73621335
   0.50000000 -0.00000000  0.73621335
unknown system                          
           1
     6.353499   -0.000000    0.000000
     0.000000    6.353499    0.000000
     0.000000   -0.000000    6.792244
   V    Fe
  17   3
Direct configuration=    29
   0.00000000 -0.00000000  0.42559556
   0.21388117  0.77222428  0.74687422
   0.78611883  0.22777572  0.74687422
   0.22777572  0.21388117  0.74687422
   0.77222428  0.78611883  0.74687422
   0.46387325  0.81058029  0.43494358
   0.53612675  0.18941971  0.43494358
   0.18941971  0.46387325  0.43494358
   0.81058029  0.53612675  0.43494358
   0.50000000  0.50000000  0.00616348
   0.00000000  0.50000000  0.05045495
   0.50000000 -0.00000000  0.05045495
   0.24198184  0.22159045  0.20128534
   0.75801816  0.77840955  0.20128534
   0.77840955  0.24198184  0.20128534
   0.22159045  0.75801816  0.20128534
   0.00000000 -0.00000000 -0.00842042
   0.50000000  0.50000000  0.65469793
   0.00000000  0.50000000  0.72846698
   0.50000000 -0.00000000  0.72846698
unknown system                          
           1
     6.351451   -0.000000    0.000000
     0.000000    6.351451    0.000000
     0.000000   -0.000000    6.771309
   V    Fe
  17   3
Direct configuration=    30
   0.00000000 -0.00000000  0.42839316
   0.21489759  0.77236031  0.75100876
   0.78510241  0.22763969  0.75100876
   0.22763969  0.21489759  0.75100876
   0.77236031  0.78510241  0.75100876
   0.46537228  0.80850966  0.43502070
   0.53462772  0.19149034  0.43502070
   0.19149034  0.46537228  0.43502070
   0.80850966  0.53462772  0.43502070
   0.50000000  0.50000000  0.00696975
   0.00000000  0.50000000  0.05053911
   0.50000000 -0.00000000  0.05053911
   0.24109805  0.22059668  0.19890448
   0.75890195  0.77940332  0.19890448
   0.77940332  0.24109805  0.19890448
   0.22059668  0.75890195  0.19890448
   0.00000000 -0.00000000 -0.01011526
   0.50000000  0.50000000  0.65245880
   0.00000000  0.50000000  0.72488629
   0.50000000 -0.00000000  0.72488629
unknown system                          
           1
     6.345309   -0.000000    0.000000
     0.000000    6.345309    0.000000
     0.000000   -0.000000    6.708506
   V    Fe
  17   3
Direct configuration=    31
   0.00000000 -0.00000000  0.43681190
   0.21794785  0.77276855  0.76345070
   0.78205215  0.22723145  0.76345070
   0.22723145  0.21794785  0.76345070
   0.77276855  0.78205215  0.76345070
   0.46987082  0.80229576  0.43525277
   0.53012918  0.19770424  0.43525277
   0.19770424  0.46987082  0.43525277
   0.80229576  0.53012918  0.43525277
   0.50000000  0.50000000  0.00939604
   0.00000000  0.50000000  0.05079238
   0.50000000 -0.00000000  0.05079238
   0.23844580  0.21761440  0.19173983