  20  20   0   0
  0.1295360E+02  0.6415122E-09  0.6615282E-09  0.6615282E-09  0.5000000E-15
  1.000000000000000E-004
  CAR 
 unknown system                          
      8.57789788     -1.55180218  301      6.43494872      1.00000000
     -1.552  0.0000E+00  0.0000E+00
     -1.518  0.0000E+00  0.0000E+00
     -1.484  0.0000E+00  0.0000E+00
     -1.451  0.0000E+00  0.0000E+00
     -1.417  0.0000E+00  0.0000E+00
     -1.383  0.0000E+00  0.0000E+00
     -1.349  0.0000E+00  0.0000E+00
     -1.315  0.0000E+00  0.0000E+00
     -1.282  0.0000E+00  0.0000E+00
     -1.248  0.0000E+00  0.0000E+00
     -1.214  0.0000E+00  0.0000E+00
     -1.180  0.0000E+00  0.0000E+00
     -1.147  0.0000E+00  0.0000E+00
     -1.113  0.1562E-16  0.5274E-18
     -1.079  0.6403E-15  0.2215E-16
     -1.045  0.2130E-13  0.7414E-15
     -1.012  0.5655E-12  0.1984E-13
     -0.978  0.1199E-10  0.4246E-12
     -0.944  0.2028E-09  0.7274E-11
     -0.910  0.2741E-08  0.9983E-10
     -0.876  0.2959E-07  0.1099E-08
     -0.843  0.2551E-06  0.9711E-08
     -0.809  0.1757E-05  0.6903E-07
     -0.775  0.9669E-05  0.3955E-06
     -0.741  0.4252E-04  0.1831E-05
     -0.708  0.1495E-03  0.6878E-05
     -0.674  0.4199E-03  0.2106E-04
     -0.640  0.9432E-03  0.5290E-04
     -0.606  0.1693E-02  0.1101E-03
     -0.573  0.2431E-02  0.1922E-03
     -0.539  0.2790E-02  0.2864E-03
     -0.505  0.2560E-02  0.3728E-03
     -0.471  0.1879E-02  0.4363E-03
     -0.438  0.1102E-02  0.4735E-03
     -0.404  0.5168E-03  0.4909E-03
     -0.370  0.1937E-03  0.4975E-03
     -0.336  0.5805E-04  0.4994E-03
     -0.302  0.1390E-04  0.4999E-03
     -0.269  0.2661E-05  0.5000E-03
     -0.235  0.4070E-06  0.5000E-03
     -0.201  0.4973E-07  0.5000E-03
     -0.167  0.4854E-08  0.5000E-03
     -0.134  0.3784E-09  0.5000E-03
     -0.100  0.2356E-10  0.5000E-03
     -0.066  0.1175E-11  0.5000E-03
     -0.032  0.1744E-12  0.5000E-03
      0.001  0.3034E-11  0.5000E-03
      0.035  0.5750E-10  0.5000E-03
      0.069  0.8733E-09  0.5000E-03
      0.103  0.1063E-07  0.5000E-03
      0.136  0.1040E-06  0.5000E-03
      0.170  0.8184E-06  0.5000E-03
      0.204  0.5193E-05  0.5002E-03
      0.238  0.2666E-04  0.5011E-03
      0.272  0.1110E-03  0.5049E-03
      0.305  0.3769E-03  0.5176E-03
      0.339  0.1048E-02  0.5530E-03
      0.373  0.2398E-02  0.6339E-03
      0.407  0.4549E-02  0.7875E-03
      0.440  0.7219E-02  0.1031E-02
      0.474  0.9717E-02  0.1359E-02
      0.508  0.1132E-01  0.1742E-02
      0.542  0.1175E-01  0.2139E-02
      0.575  0.1117E-01  0.2516E-02
      0.609  0.9819E-02  0.2847E-02
      0.643  0.7860E-02  0.3113E-02
      0.677  0.5538E-02  0.3300E-02
      0.710  0.3320E-02  0.3412E-02
      0.744  0.1653E-02  0.3468E-02
      0.778  0.6854E-03  0.3491E-02
      0.812  0.2905E-03  0.3501E-02
      0.846  0.3221E-03  0.3511E-02
      0.879  0.8160E-03  0.3539E-02
      0.913  0.2001E-02  0.3607E-02
      0.947  0.4099E-02  0.3745E-02
      0.981  0.6989E-02  0.3981E-02
      1.014  0.9999E-02  0.4319E-02
      1.048  0.1207E-01  0.4726E-02
      1.082  0.1228E-01  0.5140E-02
      1.116  0.1048E-01  0.5494E-02
      1.149  0.7464E-02  0.5746E-02
      1.183  0.4457E-02  0.5897E-02
      1.217  0.2409E-02  0.5978E-02
      1.251  0.1598E-02  0.6032E-02
      1.285  0.1756E-02  0.6092E-02
      1.318  0.2341E-02  0.6171E-02
      1.352  0.2769E-02  0.6264E-02
      1.386  0.2670E-02  0.6354E-02
      1.420  0.2074E-02  0.6424E-02
      1.453  0.1330E-02  0.6469E-02
      1.487  0.8339E-03  0.6497E-02
      1.521  0.8593E-03  0.6526E-02
      1.555  0.1588E-02  0.6580E-02
      1.588  0.3142E-02  0.6686E-02
      1.622  0.5486E-02  0.6871E-02
      1.656  0.8299E-02  0.7152E-02
      1.690  0.1100E-01  0.7523E-02
      1.723  0.1299E-01  0.7962E-02
      1.757  0.1404E-01  0.8436E-02
      1.791  0.1439E-01  0.8922E-02
      1.825  0.1440E-01  0.9408E-02
      1.859  0.1390E-01  0.9878E-02
      1.892  0.1235E-01  0.1029E-01
      1.926  0.9629E-02  0.1062E-01
      1.960  0.6592E-02  0.1084E-01
      1.994  0.4523E-02  0.1100E-01
      2.027  0.4237E-02  0.1114E-01
      2.061  0.5568E-02  0.1133E-01
      2.095  0.7456E-02  0.1158E-01
      2.129  0.8575E-02  0.1187E-01
      2.162  0.8236E-02  0.1215E-01
      2.196  0.6839E-02  0.1238E-01
      2.230  0.5314E-02  0.1256E-01
      2.264  0.4200E-02  0.1270E-01
      2.297  0.3376E-02  0.1281E-01
      2.331  0.2542E-02  0.1290E-01
      2.365  0.1690E-02  0.1295E-01
      2.399  0.1091E-02  0.1299E-01
      2.433  0.1079E-02  0.1303E-01
      2.466  0.1930E-02  0.1309E-01
      2.500  0.3744E-02  0.1322E-01
      2.534  0.6228E-02  0.1343E-01
      2.568  0.8679E-02  0.1372E-01
      2.601  0.1051E-01  0.1408E-01
      2.635  0.1192E-01  0.1448E-01
      2.669  0.1375E-01  0.1494E-01
      2.703  0.1669E-01  0.1551E-01
      2.736  0.2067E-01  0.1621E-01
      2.770  0.2524E-01  0.1706E-01
      2.804  0.2993E-01  0.1807E-01
      2.838  0.3429E-01  0.1923E-01
      2.872  0.3779E-01  0.2050E-01
      2.905  0.4012E-01  0.2186E-01
      2.939  0.4153E-01  0.2326E-01
      2.973  0.4273E-01  0.2470E-01
      3.007  0.4428E-01  0.2620E-01
      3.040  0.4615E-01  0.2776E-01
      3.074  0.4795E-01  0.2938E-01
      3.108  0.4974E-01  0.3105E-01
      3.142  0.5235E-01  0.3282E-01
      3.175  0.5641E-01  0.3473E-01
      3.209  0.6093E-01  0.3678E-01
      3.243  0.6334E-01  0.3892E-01
      3.277  0.6166E-01  0.4101E-01
      3.310  0.5671E-01  0.4292E-01
      3.344  0.5154E-01  0.4466E-01
      3.378  0.4891E-01  0.4631E-01
      3.412  0.4937E-01  0.4798E-01
      3.446  0.5142E-01  0.4971E-01
      3.479  0.5269E-01  0.5149E-01
      3.513  0.5125E-01  0.5322E-01
      3.547  0.4665E-01  0.5480E-01
      3.581  0.4032E-01  0.5616E-01
      3.614  0.3489E-01  0.5734E-01
      3.648  0.3259E-01  0.5844E-01
      3.682  0.3401E-01  0.5959E-01
      3.716  0.3806E-01  0.6087E-01
      3.749  0.4316E-01  0.6233E-01
      3.783  0.4840E-01  0.6396E-01
      3.817  0.5368E-01  0.6578E-01
      3.851  0.5884E-01  0.6776E-01
      3.884  0.6301E-01  0.6989E-01
      3.918  0.6498E-01  0.7209E-01
      3.952  0.6410E-01  0.7425E-01
      3.986  0.6085E-01  0.7631E-01
      4.020  0.5661E-01  0.7822E-01
      4.053  0.5275E-01  0.8000E-01
      4.087  0.4987E-01  0.8168E-01
      4.121  0.4784E-01  0.8330E-01
      4.155  0.4658E-01  0.8487E-01
      4.188  0.4648E-01  0.8644E-01
      4.222  0.4793E-01  0.8806E-01
      4.256  0.5053E-01  0.8976E-01
      4.290  0.5311E-01  0.9156E-01
      4.323  0.5460E-01  0.9340E-01
      4.357  0.5486E-01  0.9525E-01
      4.391  0.5460E-01  0.9710E-01
      4.425  0.5480E-01  0.9895E-01
      4.458  0.5615E-01  0.1008E+00
      4.492  0.5857E-01  0.1028E+00
      4.526  0.6116E-01  0.1049E+00
      4.560  0.6282E-01  0.1070E+00
      4.594  0.6321E-01  0.1091E+00
      4.627  0.6296E-01  0.1113E+00
      4.661  0.6295E-01  0.1134E+00
      4.695  0.6337E-01  0.1155E+00
      4.729  0.6373E-01  0.1177E+00
      4.762  0.6401E-01  0.1198E+00
      4.796  0.6502E-01  0.1220E+00
      4.830  0.6717E-01  0.1243E+00
      4.864  0.6942E-01  0.1267E+00
      4.897  0.7001E-01  0.1290E+00
      4.931  0.6805E-01  0.1313E+00
      4.965  0.6397E-01  0.1335E+00
      4.999  0.5901E-01  0.1355E+00
      5.033  0.5459E-01  0.1373E+00
      5.066  0.5182E-01  0.1391E+00
      5.100  0.5090E-01  0.1408E+00
      5.134  0.5125E-01  0.1425E+00
      5.168  0.5250E-01  0.1443E+00
      5.201  0.5505E-01  0.1461E+00
      5.235  0.5949E-01  0.1482E+00
      5.269  0.6576E-01  0.1504E+00
      5.303  0.7257E-01  0.1528E+00
      5.336  0.7754E-01  0.1554E+00
      5.370  0.7808E-01  0.1581E+00
      5.404  0.7338E-01  0.1606E+00
      5.438  0.6561E-01  0.1628E+00
      5.471  0.5852E-01  0.1647E+00
      5.505  0.5464E-01  0.1666E+00
      5.539  0.5414E-01  0.1684E+00
      5.573  0.5604E-01  0.1703E+00
      5.607  0.5975E-01  0.1723E+00
      5.640  0.6508E-01  0.1745E+00
      5.674  0.7099E-01  0.1769E+00
      5.708  0.7526E-01  0.1795E+00
      5.742  0.7588E-01  0.1820E+00
      5.775  0.7267E-01  0.1845E+00
      5.809  0.6707E-01  0.1867E+00
      5.843  0.6055E-01  0.1888E+00
      5.877  0.5360E-01  0.1906E+00
      5.910  0.4649E-01  0.1922E+00
      5.944  0.4017E-01  0.1935E+00
      5.978  0.3606E-01  0.1947E+00
      6.012  0.3510E-01  0.1959E+00
      6.045  0.3735E-01  0.1972E+00
      6.079  0.4214E-01  0.1986E+00
      6.113  0.4818E-01  0.2002E+00
      6.147  0.5382E-01  0.2021E+00
      6.181  0.5778E-01  0.2040E+00
      6.214  0.5983E-01  0.2060E+00
      6.248  0.6046E-01  0.2081E+00
      6.282  0.6007E-01  0.2101E+00
      6.316  0.5860E-01  0.2121E+00
      6.349  0.5570E-01  0.2140E+00
      6.383  0.5124E-01  0.2157E+00
      6.417  0.4593E-01  0.2172E+00
      6.451  0.4161E-01  0.2186E+00
      6.484  0.4035E-01  0.2200E+00
      6.518  0.4294E-01  0.2215E+00
      6.552  0.4787E-01  0.2231E+00
      6.586  0.5228E-01  0.2248E+00
      6.619  0.5406E-01  0.2267E+00
      6.653  0.5317E-01  0.2285E+00
      6.687  0.5115E-01  0.2302E+00
      6.721  0.4975E-01  0.2319E+00
      6.755  0.4993E-01  0.2335E+00
      6.788  0.5165E-01  0.2353E+00
      6.822  0.5426E-01  0.2371E+00
      6.856  0.5714E-01  0.2391E+00
      6.890  0.5971E-01  0.2411E+00
      6.923  0.6092E-01  0.2431E+00
      6.957  0.5954E-01  0.2451E+00
      6.991  0.5542E-01  0.2470E+00
      7.025  0.5002E-01  0.2487E+00
      7.058  0.4527E-01  0.2502E+00
      7.092  0.4235E-01  0.2517E+00
      7.126  0.4149E-01  0.2531E+00
      7.160  0.4247E-01  0.2545E+00
      7.194  0.4477E-01  0.2560E+00
      7.227  0.4758E-01  0.2576E+00
      7.261  0.5018E-01  0.2593E+00
      7.295  0.5213E-01  0.2611E+00
      7.329  0.5304E-01  0.2629E+00
      7.362  0.5249E-01  0.2646E+00
      7.396  0.5000E-01  0.2663E+00
      7.430  0.4515E-01  0.2678E+00
      7.464  0.3788E-01  0.2691E+00
      7.497  0.2918E-01  0.2701E+00
      7.531  0.2080E-01  0.2708E+00
      7.565  0.1411E-01  0.2713E+00
      7.599  0.9314E-02  0.2716E+00
      7.632  0.5880E-02  0.2718E+00
      7.666  0.3369E-02  0.2719E+00
      7.700  0.1663E-02  0.2720E+00
      7.734  0.6829E-03  0.2720E+00
      7.768  0.2290E-03  0.2720E+00
      7.801  0.6209E-04  0.2720E+00
      7.835  0.1355E-04  0.2720E+00
      7.869  0.2376E-05  0.2720E+00
      7.903  0.3342E-06  0.2720E+00
      7.936  0.3766E-07  0.2720E+00
      7.970  0.3401E-08  0.2720E+00
      8.004  0.2459E-09  0.2720E+00
      8.038  0.1423E-10  0.2720E+00
      8.071  0.6588E-12  0.2720E+00
      8.105  0.2440E-13  0.2720E+00
      8.139  0.7217E-15  0.2720E+00
      8.173  0.1808E-16  0.2720E+00
      8.206  0.0000E+00  0.2720E+00
      8.240  0.0000E+00  0.2720E+00
      8.274  0.0000E+00  0.2720E+00
      8.308  0.0000E+00  0.2720E+00
      8.342  0.0000E+00  0.2720E+00
      8.375  0.0000E+00  0.2720E+00
      8.409  0.0000E+00  0.2720E+00
      8.443  0.0000E+00  0.2720E+00
      8.477  0.0000E+00  0.2720E+00
      8.510  0.0000E+00  0.2720E+00
      8.544  0.0000E+00  0.2720E+00
      8.578  0.0000E+00  0.2720E+00
