   20   20  500    1
  0.1295360E+02  0.6415122E-09  0.6615282E-09  0.6615282E-09  0.5000000E-15
  1.000000000000000E-004
  CAR 
 unknown system                          
    109      6     68
 
  0.0000000E+00  0.0000000E+00  0.0000000E+00  0.1250000E+00
    1       -0.551802   1.000000
    2        2.590281   1.000000
    3        2.701635   1.000000
    4        2.803542   1.000000
    5        2.896589   1.000000
    6        2.944946   1.000000
    7        2.988511   1.000000
    8        3.099548   1.000000
    9        3.232577   1.000000
   10        3.233026   1.000000
   11        3.366466   1.000000
   12        3.403834   1.000000
   13        3.458971   1.000000
   14        3.572004   1.000000
   15        3.586962   1.000000
   16        3.692169   1.000000
   17        3.753229   1.000000
   18        3.778956   1.000000
   19        3.861585   1.000000
   20        3.870133   1.000000
   21        3.933117   1.000000
   22        4.153526   1.000000
   23        4.261787   1.000000
   24        4.269963   1.000000
   25        4.365982   1.000000
   26        4.409498   1.000000
   27        4.450798   1.000000
   28        4.643932   1.000000
   29        4.685689   1.000000
   30        4.740067   1.000000
   31        4.828269   1.000000
   32        4.850967   1.000000
   33        4.863807   1.000000
   34        4.864008   1.000000
   35        4.957367   1.000000
   36        5.122052   1.000000
   37        5.144266   1.000000
   38        5.221743   1.000000
   39        5.224292   1.000000
   40        5.306424   1.000000
   41        5.338529   1.000000
   42        5.370439   1.000000
   43        5.414936   1.000000
   44        5.474622   1.000000
   45        5.587765   1.000000
   46        5.709938   1.000000
   47        5.789873   1.000000
   48        5.867203   1.000000
   49        5.883872   1.000000
   50        5.898000   1.000000
   51        6.093965   0.999999
   52        6.132930   0.999990
   53        6.326578   0.937311
   54        6.356402   0.866676
   55        6.369144   0.823975
   56        6.542487   0.064153
   57        6.553142   0.047311
   58        6.671784   0.000405
   59        6.675910   0.000328
   60        6.838690   0.000000
   61        6.906318   0.000000
   62        6.940556   0.000000
   63        6.943028   0.000000
   64        7.213595   0.000000
   65        7.348932   0.000000
   66        7.354243   0.000000
   67        7.374238   0.000000
   68        7.559054   0.000000
 
  0.5000000E+00  0.1015075E-17 -0.5071762E-17  0.1250000E+00
    1        0.443173   1.000000
    2        0.540552   1.000000
    3        2.272308   1.000000
    4        2.771318   1.000000
    5        2.780284   1.000000
    6        2.858285   1.000000
    7        2.965667   1.000000
    8        3.202541   1.000000
    9        3.218623   1.000000
   10        3.334509   1.000000
   11        3.467009   1.000000
   12        3.504758   1.000000
   13        3.659443   1.000000
   14        3.773096   1.000000
   15        3.853523   1.000000
   16        3.867072   1.000000
   17        3.947620   1.000000
   18        3.950969   1.000000
   19        3.983703   1.000000
   20        4.110579   1.000000
   21        4.114969   1.000000
   22        4.228548   1.000000
   23        4.306328   1.000000
   24        4.404882   1.000000
   25        4.465459   1.000000
   26        4.525655   1.000000
   27        4.599128   1.000000
   28        4.602322   1.000000
   29        4.698500   1.000000
   30        4.763663   1.000000
   31        4.779208   1.000000
   32        4.811672   1.000000
   33        4.862402   1.000000
   34        4.884479   1.000000
   35        4.927727   1.000000
   36        4.989042   1.000000
   37        5.058399   1.000000
   38        5.147682   1.000000
   39        5.157443   1.000000
   40        5.252399   1.000000
   41        5.307760   1.000000
   42        5.347768   1.000000
   43        5.478066   1.000000
   44        5.540835   1.000000
   45        5.548545   1.000000
   46        5.694068   1.000000
   47        5.763412   1.000000
   48        5.872367   1.000000
   49        5.919395   1.000000
   50        5.992370   1.000000
   51        6.011127   1.000000
   52        6.115302   0.999997
   53        6.199450   0.999566
   54        6.220354   0.998797
   55        6.268377   0.990756
   56        6.280362   0.985599
   57        6.484341   0.242426
   58        6.593708   0.012378
   59        6.871898   0.000000
   60        6.880897   0.000000
   61        6.950966   0.000000
   62        6.952672   0.000000
   63        7.018286   0.000000
   64        7.114718   0.000000
   65        7.209405   0.000000
   66        7.234686   0.000000
   67        7.323452   0.000000
   68        7.577898   0.000000
 
  0.0000000E+00  0.5000000E+00 -0.4071958E-18  0.2500000E+00
    1        0.489722   1.000000
    2        0.612677   1.000000
    3        2.568556   1.000000
    4        2.833992   1.000000
    5        2.861840   1.000000
    6        3.018752   1.000000
    7        3.028935   1.000000
    8        3.082372   1.000000
    9        3.214210   1.000000
   10        3.239880   1.000000
   11        3.269773   1.000000
   12        3.334324   1.000000
   13        3.427767   1.000000
   14        3.489692   1.000000
   15        3.649615   1.000000
   16        3.716410   1.000000
   17        3.771788   1.000000
   18        3.906399   1.000000
   19        3.946058   1.000000
   20        4.024185   1.000000
   21        4.053728   1.000000
   22        4.180805   1.000000
   23        4.252593   1.000000
   24        4.291128   1.000000
   25        4.451367   1.000000
   26        4.522981   1.000000
   27        4.543765   1.000000
   28        4.576025   1.000000
   29        4.633843   1.000000
   30        4.696271   1.000000
   31        4.709799   1.000000
   32        4.842585   1.000000
   33        4.866557   1.000000
   34        4.924160   1.000000
   35        4.998351   1.000000
   36        5.059702   1.000000
   37        5.101237   1.000000
   38        5.228891   1.000000
   39        5.351543   1.000000
   40        5.379793   1.000000
   41        5.488069   1.000000
   42        5.508808   1.000000
   43        5.593968   1.000000
   44        5.615612   1.000000
   45        5.709569   1.000000
   46        5.728272   1.000000
   47        5.760261   1.000000
   48        5.819722   1.000000
   49        5.871314   1.000000
   50        6.113541   0.999997
   51        6.156604   0.999959
   52        6.212742   0.999162
   53        6.361190   0.851549
   54        6.385003   0.760010
   55        6.539317   0.069972
   56        6.571147   0.027043
   57        6.698387   0.000097
   58        6.725713   0.000020
   59        6.775918   0.000001
   60        6.911945   0.000000
   61        6.921258   0.000000
   62        6.934224   0.000000
   63        6.984978   0.000000
   64        7.176985   0.000000
   65        7.223462   0.000000
   66        7.349475   0.000000
   67        7.417021   0.000000
   68        7.425173   0.000000
 
  0.5000000E+00  0.5000000E+00  0.1634425E-15  0.2500000E+00
    1        1.007224   1.000000
    2        1.076338   1.000000
    3        1.731700   1.000000
    4        1.870204   1.000000
    5        2.930317   1.000000
    6        3.051858   1.000000
    7        3.101030   1.000000
    8        3.119241   1.000000
    9        3.152893   1.000000
   10        3.240305   1.000000
   11        3.284109   1.000000
   12        3.376772   1.000000
   13        3.427643   1.000000
   14        3.481032   1.000000
   15        3.543084   1.000000
   16        3.720325   1.000000
   17        3.836483   1.000000
   18        3.843534   1.000000
   19        3.898231   1.000000
   20        3.951238   1.000000
   21        4.093321   1.000000
   22        4.122159   1.000000
   23        4.358870   1.000000
   24        4.365765   1.000000
   25        4.407229   1.000000
   26        4.505396   1.000000
   27        4.514831   1.000000
   28        4.604156   1.000000
   29        4.723220   1.000000
   30        4.737052   1.000000
   31        4.802972   1.000000
   32        4.861232   1.000000
   33        4.918494   1.000000
   34        4.974210   1.000000
   35        5.136706   1.000000
   36        5.180279   1.000000
   37        5.235942   1.000000
   38        5.263276   1.000000
   39        5.307362   1.000000
   40        5.369838   1.000000
   41        5.430669   1.000000
   42        5.567790   1.000000
   43        5.661733   1.000000
   44        5.676712   1.000000
   45        5.690660   1.000000
   46        5.733526   1.000000
   47        5.774471   1.000000
   48        5.857369   1.000000
   49        5.996724   1.000000
   50        6.057459   1.000000
   51        6.122438   0.999995
   52        6.263005   0.992485
   53        6.280413   0.985573
   54        6.281264   0.985126
   55        6.363174   0.844960
   56        6.576100   0.022957
   57        6.604483   0.008252
   58        6.645110   0.001479
   59        6.810713   0.000000
   60        6.823700   0.000000
   61        6.985059   0.000000
   62        7.064883   0.000000
   63        7.071134   0.000000
   64        7.185596   0.000000
   65        7.283427   0.000000
   66        7.319491   0.000000
   67        7.416490   0.000000
   68        7.453815   0.000000
 
  0.0000000E+00  0.5000000E+00  0.5000000E+00  0.1250000E+00
    1        1.080379   1.000000
    2        1.347017   1.000000
    3        1.640201   1.000000
    4        1.872900   1.000000
    5        2.703881   1.000000
    6        2.713849   1.000000
    7        2.863986   1.000000
    8        3.040062   1.000000
    9        3.207302   1.000000
   10        3.228679   1.000000
   11        3.261546   1.000000
   12        3.268330   1.000000
   13        3.511953   1.000000
   14        3.513735   1.000000
   15        3.535916   1.000000
   16        3.562563   1.000000
   17        3.805079   1.000000
   18        3.857553   1.000000
   19        3.982315   1.000000
   20        4.065871   1.000000
   21        4.192522   1.000000
   22        4.254001   1.000000
   23        4.297297   1.000000
   24        4.307971   1.000000
   25        4.355086   1.000000
   26        4.518869   1.000000
   27        4.603006   1.000000
   28        4.614003   1.000000
   29        4.720580   1.000000
   30        4.803867   1.000000
   31        4.866173   1.000000
   32        4.937469   1.000000
   33        4.970002   1.000000
   34        5.095008   1.000000
   35        5.251853   1.000000
   36        5.331840   1.000000
   37        5.349224   1.000000
   38        5.375767   1.000000
   39        5.385671   1.000000
   40        5.386283   1.000000
   41        5.420903   1.000000
   42        5.508625   1.000000
   43        5.605012   1.000000
   44        5.695573   1.000000
   45        5.782798   1.000000
   46        5.795796   1.000000
   47        5.817155   1.000000
   48        5.849382   1.000000
   49        6.150691   0.999971
   50        6.203860   0.999459
   51        6.209072   0.999299
   52        6.286717   0.981973
   53        6.308131   0.963551
   54        6.430603   0.524501
   55        6.453889   0.394407
   56        6.582446   0.018493
   57        6.627113   0.003288
   58        6.654987   0.000930
   59        6.667138   0.000512
   60        6.758709   0.000002
   61        6.817506   0.000000
   62        6.818917   0.000000
   63        6.891152   0.000000
   64        7.070549   0.000000
   65        7.103204   0.000000
   66        7.149892   0.000000
   67        7.337326   0.000000
   68        7.442701   0.000000
 
  0.5000000E+00  0.5000000E+00  0.5000000E+00  0.1250000E+00
    1        1.683451   1.000000
    2        1.758469   1.000000
    3        1.835906   1.000000
    4        2.105404   1.000000
    5        2.118707   1.000000
    6        2.123461   1.000000
    7        2.764002   1.000000
    8        2.892282   1.000000
    9        2.931322   1.000000
   10        2.967482   1.000000
   11        3.169265   1.000000
   12        3.184210   1.000000
   13        3.384999   1.000000
   14        3.477548   1.000000
   15        3.747308   1.000000
   16        3.871610   1.000000
   17        3.925807   1.000000
   18        3.983468   1.000000
   19        3.992021   1.000000
   20        4.037853   1.000000
   21        4.077385   1.000000
   22        4.166573   1.000000
   23        4.202195   1.000000
   24        4.270433   1.000000
   25        4.320124   1.000000
   26        4.432701   1.000000
   27        4.489677   1.000000
   28        4.568391   1.000000
   29        4.675259   1.000000
   30        4.691064   1.000000
   31        4.949435   1.000000
   32        4.995748   1.000000
   33        5.002509   1.000000
   34        5.080655   1.000000
   35        5.081729   1.000000
   36        5.281055   1.000000
   37        5.317108   1.000000
   38        5.328563   1.000000
   39        5.348731   1.000000
   40        5.366603   1.000000
   41        5.529679   1.000000
   42        5.562897   1.000000
   43        5.653201   1.000000
   44        5.672701   1.000000
   45        5.689571   1.000000
   46        5.694435   1.000000
   47        5.931464   1.000000
   48        5.980821   1.000000
   49        6.065640   1.000000
   50        6.155543   0.999961
   51        6.171548   0.999902
   52        6.199019   0.999576
   53        6.357198   0.864238
   54        6.425976   0.550487
   55        6.443646   0.451052
   56        6.513285   0.133966
   57        6.553022   0.047479
   58        6.736746   0.000010
   59        6.775533   0.000001
   60        6.811613   0.000000
   61        6.903926   0.000000
   62        7.035060   0.000000
   63        7.135229   0.000000
   64        7.246207   0.000000
   65        7.280429   0.000000
   66        7.284153   0.000000
   67        7.294673   0.000000
   68        7.476142   0.000000
