       N       E                     dE             d eps       ncg     rms          rms(c)
DAV:   1     0.678093143786E+03    0.67809E+03   -0.23311E+04   832   0.111E+03
DAV:   2    -0.367705962686E+02   -0.71486E+03   -0.69010E+03   816   0.338E+02
DAV:   3    -0.165243243636E+03   -0.12847E+03   -0.12062E+03  1384   0.156E+02
DAV:   4    -0.180375081122E+03   -0.15132E+02   -0.14323E+02  1336   0.681E+01
DAV:   5    -0.181317859662E+03   -0.94278E+00   -0.90346E+00  1328   0.140E+01    0.561E+01
DAV:   6    -0.248443858267E+03   -0.67126E+02   -0.92635E+02  1632   0.214E+02    0.784E+01
DAV:   7    -0.164900171080E+03    0.83544E+02   -0.66628E+02  1376   0.180E+02    0.270E+01
DAV:   8    -0.166632187548E+03   -0.17320E+01   -0.20259E+02  1376   0.110E+02    0.243E+01
DAV:   9    -0.163428095324E+03    0.32041E+01   -0.56690E+01  1440   0.675E+01    0.250E+01
DAV:  10    -0.159981559140E+03    0.34465E+01   -0.16200E+01  1592   0.368E+01    0.978E+00
DAV:  11    -0.159693056614E+03    0.28850E+00   -0.27631E+00  1288   0.135E+01    0.717E+00
DAV:  12    -0.159478671713E+03    0.21438E+00   -0.15488E+00  1312   0.106E+01    0.428E+00
DAV:  13    -0.159758192709E+03   -0.27952E+00   -0.39873E+00  1552   0.148E+01    0.729E+00
DAV:  14    -0.159473559349E+03    0.28463E+00   -0.23616E+00  1632   0.119E+01    0.383E+00
DAV:  15    -0.159404969065E+03    0.68590E-01   -0.46210E-01  1544   0.522E+00    0.162E+00
DAV:  16    -0.159407677872E+03   -0.27088E-02   -0.23005E-01  1312   0.346E+00    0.142E+00
DAV:  17    -0.159396055552E+03    0.11622E-01   -0.10301E-01  1384   0.250E+00    0.481E-01
DAV:  18    -0.159395501475E+03    0.55408E-03   -0.81206E-03  1272   0.804E-01    0.257E-01
DAV:  19    -0.159395260531E+03    0.24094E-03   -0.11110E-03  1320   0.284E-01    0.109E-01
DAV:  20    -0.159395191262E+03    0.69269E-04   -0.38095E-04  1312   0.132E-01    0.370E-02
DAV:  21    -0.159395185511E+03    0.57507E-05   -0.34165E-05   776   0.496E-02
   1 F= -.15939519E+03 E0= -.15931956E+03  d E =-.159395E+03
       N       E                     dE             d eps       ncg     rms          rms(c)
DAV:   1    -0.184612758390E+03   -0.25218E+02   -0.16103E+03   912   0.276E+02    0.667E+01
DAV:   2    -0.398050938973E+03   -0.21344E+03   -0.28157E+03  1384   0.310E+02    0.129E+02
DAV:   3    -0.172753401637E+03    0.22530E+03   -0.96660E+02  1436   0.203E+02    0.611E+01
DAV:   4    -0.173996994863E+03   -0.12436E+01   -0.60857E+02  1624   0.139E+02    0.413E+01
DAV:   5    -0.167866060723E+03    0.61309E+01   -0.12038E+02  1592   0.608E+01    0.270E+01
DAV:   6    -0.165265304775E+03    0.26008E+01   -0.39541E+01  1584   0.449E+01    0.218E+01
DAV:   7    -0.164164148816E+03    0.11012E+01   -0.20535E+01  1616   0.314E+01    0.202E+01
DAV:   8    -0.163721451033E+03    0.44270E+00   -0.14628E+01  1392   0.213E+01    0.211E+01
DAV:   9    -0.163033637327E+03    0.68781E+00   -0.16546E+00  1392   0.880E+00    0.174E+01
DAV:  10    -0.163053084220E+03   -0.19447E-01   -0.35516E+00  1576   0.120E+01    0.162E+01
DAV:  11    -0.162831057857E+03    0.22203E+00   -0.33047E+00  1584   0.107E+01    0.118E+01
DAV:  12    -0.162737251223E+03    0.93807E-01   -0.46219E+00  1360   0.127E+01    0.106E+01
DAV:  13    -0.162115701325E+03    0.62155E+00   -0.27486E+00  1480   0.105E+01    0.394E+00
DAV:  14    -0.162097552660E+03    0.18149E-01   -0.51672E-01  1384   0.435E+00    0.326E+00
DAV:  15    -0.162064638968E+03    0.32914E-01   -0.17308E-01  1520   0.248E+00    0.256E+00
DAV:  16    -0.162052880662E+03    0.11758E-01   -0.27000E-02  1520   0.105E+00    0.181E+00
DAV:  17    -0.162042448093E+03    0.10433E-01   -0.30161E-02  1632   0.101E+00    0.752E-01
DAV:  18    -0.162041020388E+03    0.14277E-02   -0.61914E-03  1376   0.483E-01    0.311E-01
DAV:  19    -0.162040866058E+03    0.15433E-03   -0.23802E-03  1552   0.264E-01    0.105E-01
DAV:  20    -0.162040849526E+03    0.16532E-04   -0.32358E-04  1360   0.101E-01    0.493E-02
DAV:  21    -0.162040851589E+03   -0.20631E-05   -0.21166E-05   736   0.289E-02
   2 F= -.16204085E+03 E0= -.16193912E+03  d E =-.264567E+01
       N       E                     dE             d eps       ncg     rms          rms(c)
DAV:   1    -0.168740211619E+03   -0.66994E+01   -0.17687E+02   928   0.794E+01    0.306E+01
DAV:   2    -0.251550087377E+03   -0.82810E+02   -0.59441E+02  1528   0.229E+02    0.107E+02
DAV:   3    -0.181557829724E+03    0.69992E+02   -0.30883E+02  1464   0.815E+01    0.404E+01
DAV:   4    -0.168077697651E+03    0.13480E+02   -0.88684E+01  1608   0.628E+01    0.255E+01
DAV:   5    -0.163490940574E+03    0.45868E+01   -0.47941E+01  1488   0.454E+01    0.824E+00
DAV:   6    -0.163983065392E+03   -0.49212E+00   -0.10055E+01  1544   0.237E+01    0.113E+01
DAV:   7    -0.163742769070E+03    0.24030E+00   -0.53310E+00  1552   0.163E+01    0.855E+00
DAV:   8    -0.163333602474E+03    0.40917E+00   -0.29072E+00  1496   0.113E+01    0.453E+00
DAV:   9    -0.163309730877E+03    0.23872E-01   -0.60466E-01  1336   0.448E+00    0.399E+00
DAV:  10    -0.163278898029E+03    0.30833E-01   -0.27151E-01  1512   0.320E+00    0.243E+00
DAV:  11    -0.163268304448E+03    0.10594E-01   -0.17730E-01  1320   0.254E+00    0.187E+00
DAV:  12    -0.163260594291E+03    0.77102E-02   -0.61584E-02  1520   0.166E+00    0.150E+00
DAV:  13    -0.163258559704E+03    0.20346E-02   -0.17049E-02  1336   0.939E-01    0.130E+00
DAV:  14    -0.163254173957E+03    0.43857E-02   -0.14502E-02  1616   0.801E-01    0.600E-01
DAV:  15    -0.163253309070E+03    0.86489E-03   -0.27573E-03  1536   0.327E-01    0.308E-01
DAV:  16    -0.163253042170E+03    0.26690E-03   -0.94891E-04  1576   0.173E-01    0.106E-01
DAV:  17    -0.163253011522E+03    0.30648E-04   -0.21836E-04  1360   0.901E-02    0.250E-02
DAV:  18    -0.163253013665E+03   -0.21430E-05   -0.35817E-05   848   0.343E-02
   3 F= -.16325301E+03 E0= -.16315595E+03  d E =-.385783E+01
       N       E                     dE             d eps       ncg     rms          rms(c)
DAV:   1    -0.167308100811E+03   -0.40551E+01   -0.27801E+02   816   0.658E+01    0.128E+01
DAV:   2    -0.186289922990E+03   -0.18982E+02   -0.16208E+02  1624   0.100E+02    0.433E+01
DAV:   3    -0.166164093649E+03    0.20126E+02   -0.90545E+01  1580   0.716E+01    0.921E+00
DAV:   4    -0.166336179256E+03   -0.17209E+00   -0.11540E+01  1536   0.250E+01    0.762E+00
DAV:   5    -0.166556596199E+03   -0.22042E+00   -0.58821E+00  1600   0.201E+01    0.107E+01
DAV:   6    -0.165898311757E+03    0.65828E+00   -0.47958E+00  1616   0.161E+01    0.361E+00
DAV:   7    -0.165925327510E+03   -0.27016E-01   -0.15257E+00  1544   0.878E+00    0.306E+00
DAV:   8    -0.165851123613E+03    0.74204E-01   -0.61278E-01  1568   0.582E+00    0.167E+00
DAV:   9    -0.165831051531E+03    0.20072E-01   -0.19709E-01  1536   0.321E+00    0.739E-01
DAV:  10    -0.165830340306E+03    0.71123E-03   -0.29365E-02  1392   0.127E+00    0.480E-01
DAV:  11    -0.165828955661E+03    0.13846E-02   -0.21033E-02  1408   0.915E-01    0.298E-01
DAV:  12    -0.165828505975E+03    0.44969E-03   -0.49585E-03  1616   0.499E-01    0.124E-01
DAV:  13    -0.165828537110E+03   -0.31135E-04   -0.12394E-03  1416   0.231E-01    0.125E-01
DAV:  14    -0.165828432832E+03    0.10428E-03   -0.65959E-04  1472   0.180E-01    0.434E-02
DAV:  15    -0.165828421708E+03    0.11124E-04   -0.68926E-05  1112   0.618E-02    0.112E-02
DAV:  16    -0.165828420208E+03    0.15006E-05   -0.10486E-05   544   0.272E-02
   4 F= -.16582842E+03 E0= -.16575767E+03  d E =-.257541E+01
       N       E                     dE             d eps       ncg     rms          rms(c)
DAV:   1    -0.168927837382E+03   -0.30994E+01   -0.42728E+02   816   0.825E+01    0.157E+01
DAV:   2    -0.191348437080E+03   -0.22421E+02   -0.20480E+02  1600   0.117E+02    0.479E+01
DAV:   3    -0.167803422447E+03    0.23545E+02   -0.11358E+02  1568   0.817E+01    0.110E+01
DAV:   4    -0.167969172253E+03   -0.16575E+00   -0.16921E+01  1584   0.318E+01    0.937E+00
DAV:   5    -0.167965572917E+03    0.35993E-02   -0.72293E+00  1512   0.231E+01    0.906E+00
DAV:   6    -0.167358558415E+03    0.60701E+00   -0.63706E+00  1576   0.175E+01    0.411E+00
DAV:   7    -0.167453578002E+03   -0.95020E-01   -0.25387E+00  1560   0.109E+01    0.461E+00
DAV:   8    -0.167250128581E+03    0.20345E+00   -0.13384E+00  1292   0.739E+00    0.152E+00
DAV:   9    -0.167253536870E+03   -0.34083E-02   -0.20359E-01  1328   0.311E+00    0.126E+00
DAV:  10    -0.167243214534E+03    0.10322E-01   -0.57336E-02  1576   0.197E+00    0.501E-01
DAV:  11    -0.167245969862E+03   -0.27553E-02   -0.36726E-02  1576   0.145E+00    0.637E-01
DAV:  12    -0.167242695325E+03    0.32745E-02   -0.19424E-02  1544   0.991E-01    0.194E-01
DAV:  13    -0.167242660349E+03    0.34976E-04   -0.29810E-03  1480   0.382E-01    0.165E-01
DAV:  14    -0.167242516508E+03    0.14384E-03   -0.85166E-04  1496   0.219E-01    0.398E-02
DAV:  15    -0.167242508297E+03    0.82116E-05   -0.86015E-05  1200   0.611E-02
   5 F= -.16724251E+03 E0= -.16718331E+03  d E =-.398949E+01
       N       E                     dE             d eps       ncg     rms          rms(c)
DAV:   1    -0.168089350661E+03   -0.84683E+00   -0.19175E+02   816   0.574E+01    0.845E+00
DAV:   2    -0.180506485539E+03   -0.12417E+02   -0.10072E+02  1536   0.770E+01    0.403E+01
DAV:   3    -0.168044358810E+03    0.12462E+02   -0.47617E+01  1608   0.478E+01    0.454E+00
DAV:   4    -0.168385524246E+03   -0.34117E+00   -0.58669E+00  1424   0.150E+01    0.502E+00
DAV:   5    -0.168225586591E+03    0.15994E+00   -0.20997E+00  1624   0.106E+01    0.335E+00
DAV:   6    -0.168251777213E+03   -0.26191E-01   -0.12376E+00  1600   0.837E+00    0.372E+00
DAV:   7    -0.168205648214E+03    0.46129E-01   -0.73773E-01  1576   0.747E+00    0.262E+00
DAV:   8    -0.168140660741E+03    0.64987E-01   -0.43130E-01  1584   0.456E+00    0.449E-01
DAV:   9    -0.168141597294E+03   -0.93655E-03   -0.25648E-02  1320   0.106E+00    0.304E-01
DAV:  10    -0.168141407887E+03    0.18941E-03   -0.98157E-03  1368   0.671E-01    0.258E-01
DAV:  11    -0.168141096603E+03    0.31128E-03   -0.39284E-03  1472   0.424E-01    0.134E-01
DAV:  12    -0.168141074774E+03    0.21829E-04   -0.19867E-03  1304   0.299E-01    0.115E-01
DAV:  13    -0.168140971487E+03    0.10329E-03   -0.75874E-04  1616   0.199E-01    0.285E-02
DAV:  14    -0.168140975147E+03   -0.36604E-05   -0.15904E-04  1312   0.818E-02    0.301E-02
DAV:  15    -0.168140969503E+03    0.56441E-05   -0.25695E-05   728   0.435E-02
   6 F= -.16814097E+03 E0= -.16806744E+03  d E =-.898461E+00
       N       E                     dE             d eps       ncg     rms          rms(c)
DAV:   1    -0.168218017795E+03   -0.77043E-01   -0.30603E+01   816   0.213E+01    0.309E+00
DAV:   2    -0.169870498402E+03   -0.16525E+01   -0.12506E+01  1568   0.265E+01    0.160E+01
DAV:   3    -0.168229424905E+03    0.16411E+01   -0.74871E+00  1616   0.200E+01    0.206E+00
DAV:   4    -0.168245433153E+03   -0.16008E-01   -0.76719E-01  1408   0.634E+00    0.171E+00
DAV:   5    -0.168242836246E+03    0.25969E-02   -0.33082E-01  1520   0.469E+00    0.200E+00
DAV:   6    -0.168223899071E+03    0.18937E-01   -0.26061E-01  1528   0.362E+00    0.133E+00
DAV:   7    -0.168222219915E+03    0.16792E-02   -0.13880E-01  1600   0.260E+00    0.100E+00
DAV:   8    -0.168212369956E+03    0.98500E-02   -0.62289E-02  1452   0.167E+00    0.144E-01
DAV:   9    -0.168212908864E+03   -0.53891E-03   -0.81410E-03  1328   0.545E-01    0.218E-01
DAV:  10    -0.168212414482E+03    0.49438E-03   -0.36050E-03  1288   0.375E-01    0.606E-02
DAV:  11    -0.168212462996E+03   -0.48514E-04   -0.69471E-04  1568   0.165E-01    0.731E-02
DAV:  12    -0.168212409247E+03    0.53749E-04   -0.44020E-04  1368   0.145E-01    0.241E-02
DAV:  13    -0.168212409739E+03   -0.49282E-06   -0.62757E-05  1056   0.575E-02
   7 F= -.16821241E+03 E0= -.16813426E+03  d E =-.969901E+00
       N       E                     dE             d eps       ncg     rms          rms(c)
DAV:   1    -0.169985158399E+03   -0.17727E+01   -0.15553E+02   824   0.544E+01    0.164E+01
DAV:   2    -0.204828215983E+03   -0.34843E+02   -0.25059E+02  1456   0.148E+02    0.625E+01
DAV:   3    -0.169574350957E+03    0.35254E+02   -0.13662E+02  1544   0.787E+01    0.162E+01
DAV:   4    -0.169520664060E+03    0.53687E-01   -0.24147E+01  1616   0.330E+01    0.103E+01
DAV:   5    -0.168957823030E+03    0.56284E+00   -0.73672E+00  1544   0.202E+01    0.547E+00
DAV:   6    -0.168954822218E+03    0.30008E-02   -0.17308E+00  1576   0.114E+01    0.508E+00
DAV:   7    -0.168884605274E+03    0.70217E-01   -0.17034E+00  1584   0.893E+00    0.385E+00
DAV:   8    -0.168877444855E+03    0.71604E-02   -0.86618E-01  1560   0.639E+00    0.383E+00
DAV:   9    -0.168806970605E+03    0.70474E-01   -0.27218E-01  1568   0.377E+00    0.188E+00
DAV:  10    -0.168796938138E+03    0.10032E-01   -0.58190E-02  1488   0.158E+00    0.139E+00
DAV:  11    -0.168789419415E+03    0.75187E-02   -0.26411E-02  1600   0.107E+00    0.578E-01
DAV:  12    -0.168789362347E+03    0.57068E-04   -0.58211E-03  1344   0.463E-01    0.438E-01
DAV:  13    -0.168788765911E+03    0.59644E-03   -0.28758E-03  1312   0.350E-01    0.299E-01
DAV:  14    -0.168788395000E+03    0.37091E-03   -0.11544E-03  1632   0.229E-01    0.112E-01
DAV:  15    -0.168788338491E+03    0.56509E-04   -0.23445E-04  1240   0.105E-01    0.303E-02
DAV:  16    -0.168788342247E+03   -0.37553E-05   -0.71894E-05  1128   0.534E-02
   8 F= -.16878834E+03 E0= -.16873954E+03  d E =-.575933E+00
       N       E                     dE             d eps       ncg     rms          rms(c)
DAV:   1    -0.168788842029E+03   -0.50354E-03   -0.38953E-02   952   0.946E-01    0.268E-01
DAV:   2    -0.168804984340E+03   -0.16142E-01   -0.99203E-02  1608   0.260E+00    0.162E+00
DAV:   3    -0.168788301999E+03    0.16682E-01   -0.76001E-02  1624   0.223E+00    0.124E-01
DAV:   4    -0.168788575586E+03   -0.27359E-03   -0.42332E-03  1288   0.471E-01    0.131E-01
DAV:   5    -0.168788568437E+03    0.71492E-05   -0.12020E-03  1368   0.329E-01    0.110E-01
DAV:   6    -0.168788487716E+03    0.80720E-04   -0.76554E-04  1496   0.220E-01    0.514E-02
DAV:   7    -0.168788477665E+03    0.10051E-04   -0.18943E-04  1328   0.104E-01    0.355E-02
DAV:   8    -0.168788466041E+03    0.11625E-04   -0.80559E-05  1096   0.650E-02    0.112E-02
DAV:   9    -0.168788466668E+03   -0.62735E-06   -0.19318E-05   516   0.379E-02
   9 F= -.16878847E+03 E0= -.16873955E+03  d E =-.576057E+00
       N       E                     dE             d eps       ncg     rms          rms(c)
DAV:   1    -0.169361008455E+03   -0.57254E+00   -0.13887E+02   856   0.477E+01    0.660E+00
DAV:   2    -0.177324186657E+03   -0.79632E+01   -0.62664E+01  1632   0.563E+01    0.316E+01
DAV:   3    -0.169575187981E+03    0.77490E+01   -0.37748E+01  1616   0.428E+01    0.714E+00
DAV:   4    -0.169501558167E+03    0.73630E-01   -0.54225E+00  1624   0.147E+01    0.394E+00
DAV:   5    -0.169546386326E+03   -0.44828E-01   -0.17957E+00  1616   0.103E+01    0.466E+00
DAV:   6    -0.169443216931E+03    0.10317E+00   -0.12023E+00  1616   0.841E+00    0.325E+00
DAV:   7    -0.169377929391E+03    0.65288E-01   -0.43176E-01  1608   0.558E+00    0.112E+00
DAV:   8    -0.169383479259E+03   -0.55499E-02   -0.22558E-01  1328   0.301E+00    0.139E+00
DAV:   9    -0.169364096120E+03    0.19383E-01   -0.11084E-01  1304   0.219E+00    0.368E-01
DAV:  10    -0.169363883645E+03    0.21248E-03   -0.79361E-03  1352   0.594E-01    0.125E-01
DAV:  11    -0.169363835588E+03    0.48057E-04   -0.13132E-03  1360   0.219E-01    0.589E-02
DAV:  12    -0.169363847208E+03   -0.11620E-04   -0.66996E-04  1296   0.178E-01    0.602E-02
DAV:  13    -0.169363816076E+03    0.31132E-04   -0.21776E-04  1376   0.976E-02    0.160E-02
DAV:  14    -0.169363817600E+03   -0.15240E-05   -0.34765E-05   832   0.444E-02
  10 F= -.16936382E+03 E0= -.16929952E+03  d E =-.575351E+00
       N       E                     dE             d eps       ncg     rms          rms(c)
DAV:   1    -0.169514314425E+03   -0.15050E+00   -0.46732E+01   816   0.262E+01    0.395E+00
DAV:   2    -0.172738290795E+03   -0.32240E+01   -0.24055E+01  1624   0.345E+01    0.213E+01
DAV:   3    -0.169661727671E+03    0.30766E+01   -0.16732E+01  1632   0.280E+01    0.559E+00
DAV:   4    -0.169537443231E+03    0.12428E+00   -0.20588E+00  1632   0.968E+00    0.236E+00
DAV:   5    -0.169558498547E+03   -0.21055E-01   -0.65723E-01  1576   0.625E+00    0.292E+00
DAV:   6    -0.169528791859E+03    0.29707E-01   -0.46274E-01  1584   0.542E+00    0.204E+00
DAV:   7    -0.169496452403E+03    0.32339E-01   -0.19418E-01  1592   0.350E+00    0.661E-01
DAV:   8    -0.169504515739E+03   -0.80633E-02   -0.11562E-01  1392   0.215E+00    0.108E+00
DAV:   9    -0.169492608016E+03    0.11908E-01   -0.64726E-02  1328   0.169E+00    0.202E-01
DAV:  10    -0.169492965749E+03   -0.35773E-03   -0.71217E-03  1392   0.536E-01    0.175E-01
DAV:  11    -0.169492686501E+03    0.27925E-03   -0.23537E-03  1320   0.322E-01    0.531E-02
DAV:  12    -0.169492691453E+03   -0.49515E-05   -0.45935E-04  1344   0.137E-01    0.422E-02
DAV:  13    -0.169492682909E+03    0.85434E-05   -0.20333E-04  1296   0.962E-02    0.312E-02
DAV:  14    -0.169492676165E+03    0.67443E-05   -0.35899E-05   808   0.503E-02
  11 F= -.16949268E+03 E0= -.16940879E+03  d E =-.704209E+00
       N       E                     dE             d eps       ncg     rms          rms(c)
DAV:   1    -0.169655001772E+03   -0.16232E+00   -0.19342E+02   816   0.567E+01    0.844E+00
DAV:   2    -0.183684253843E+03   -0.14029E+02   -0.10490E+02  1608   0.741E+01    0.433E+01
DAV:   3    -0.169960463593E+03    0.13724E+02   -0.78196E+01  1608   0.628E+01    0.927E+00
DAV:   4    -0.169697110427E+03    0.26335E+00   -0.91652E+00  1592   0.191E+01    0.429E+00
DAV:   5    -0.169835545249E+03   -0.13843E+00   -0.28674E+00  1560   0.117E+01    0.618E+00
DAV:   6    -0.169618123138E+03    0.21742E+00   -0.18385E+00  1616   0.103E+01    0.370E+00
DAV:   7    -0.169564568502E+03    0.53555E-01   -0.53979E-01  1608   0.663E+00    0.219E+00
DAV:   8    -0.169569667877E+03   -0.50994E-02   -0.54780E-01  1344   0.480E+00    0.220E+00
DAV:   9    -0.169522649237E+03    0.47019E-01   -0.30528E-01  1312   0.348E+00    0.694E-01
DAV:  10    -0.169522381383E+03    0.26785E-03   -0.28033E-02  1328   0.124E+00    0.465E-01
DAV:  11    -0.169521325191E+03    0.10562E-02   -0.93327E-03  1312   0.687E-01    0.274E-01
DAV:  12    -0.169520936581E+03    0.38861E-03   -0.43521E-03  1368   0.462E-01    0.105E-01
DAV:  13    -0.169520962413E+03   -0.25832E-04   -0.15128E-03  1304   0.257E-01    0.995E-02
DAV:  14    -0.169520862122E+03    0.10029E-03   -0.62869E-04  1296   0.182E-01    0.233E-02
DAV:  15    -0.169520863711E+03   -0.15890E-05   -0.58996E-05   960   0.547E-02
  12 F= -.16952086E+03 E0= -.16944044E+03  d E =-.732397E+00
       N       E                     dE             d eps       ncg     rms          rms(c)
DAV:   1    -0.170099168079E+03   -0.57831E+00   -0.62992E+01   816   0.283E+01    0.593E+00
DAV:   2    -0.176035023817E+03   -0.59359E+01   -0.43546E+01  1624   0.543E+01    0.275E+01
DAV:   3    -0.169946295105E+03    0.60887E+01   -0.30121E+01  1624   0.453E+01    0.465E+00
DAV:   4    -0.169983804556E+03   -0.37509E-01   -0.36621E+00  1376   0.128E+01    0.320E+00
DAV:   5    -0.170044409464E+03   -0.60605E-01   -0.11789E+00  1536   0.865E+00    0.446E+00
DAV:   6    -0.169953117996E+03    0.91291E-01   -0.89017E-01  1536   0.745E+00    0.251E+00
DAV:   7    -0.169924166582E+03    0.28951E-01   -0.47658E-01  1600   0.489E+00    0.187E+00
DAV:   8    -0.169920420033E+03    0.37465E-02   -0.22523E-01  1616   0.341E+00    0.137E+00
DAV:   9    -0.169903604023E+03    0.16816E-01   -0.10573E-01  1408   0.213E+00    0.470E-01
DAV:  10    -0.169904069107E+03   -0.46508E-03   -0.21700E-02  1432   0.100E+00    0.411E-01
DAV:  11    -0.169902630189E+03    0.14389E-02   -0.12450E-02  1424   0.748E-01    0.132E-01
DAV:  12    -0.169902711856E+03   -0.81667E-04   -0.24913E-03  1424   0.364E-01    0.131E-01
DAV:  13    -0.169902536638E+03    0.17522E-03   -0.12396E-03  1288   0.240E-01    0.248E-02
DAV:  14    -0.169902539423E+03   -0.27852E-05   -0.82662E-05  1088   0.639E-02
  13 F= -.16990254E+03 E0= -.16982744E+03  d E =-.381676E+00
       N       E                     dE             d eps       ncg     rms          rms(c)
DAV:   1    -0.170187817042E+03   -0.28528E+00   -0.52251E+01   816   0.259E+01    0.536E+00
DAV:   2    -0.174851287121E+03   -0.46635E+01   -0.35395E+01  1624   0.494E+01    0.247E+01
DAV:   3    -0.170062998389E+03    0.47883E+01   -0.24028E+01  1624   0.420E+01    0.425E+00
DAV:   4    -0.170082223717E+03   -0.19225E-01   -0.27134E+00  1416   0.119E+01    0.277E+00
DAV:   5    -0.170140680401E+03   -0.58457E-01   -0.97425E-01  1520   0.763E+00    0.420E+00
DAV:   6    -0.170050578883E+03    0.90102E-01   -0.67656E-01  1536   0.670E+00    0.182E+00
DAV:   7    -0.170038541340E+03    0.12038E-01   -0.36601E-01  1560   0.412E+00    0.158E+00
DAV:   8    -0.170032947651E+03    0.55937E-02   -0.17889E-01  1624   0.297E+00    0.114E+00
DAV:   9    -0.170021168729E+03    0.11779E-01   -0.68769E-02  1416   0.177E+00    0.381E-01
DAV:  10    -0.170021377539E+03   -0.20881E-03   -0.14777E-02  1448   0.816E-01    0.303E-01
DAV:  11    -0.170020692413E+03    0.68513E-03   -0.88595E-03  1440   0.624E-01    0.168E-01
DAV:  12    -0.170020578312E+03    0.11410E-03   -0.14320E-03  1616   0.321E-01    0.734E-02
DAV:  13    -0.170020533282E+03    0.45030E-04   -0.54345E-04  1280   0.149E-01    0.303E-02
DAV:  14    -0.170020528263E+03    0.50190E-05   -0.28749E-05   720   0.420E-02
  14 F= -.17002053E+03 E0= -.16994999E+03  d E =-.499665E+00
       N       E                     dE             d eps       ncg     rms          rms(c)
DAV:   1    -0.170630136225E+03   -0.60960E+00   -0.25841E+01   816   0.183E+01    0.269E+00
DAV:   2    -0.171904780448E+03   -0.12746E+01   -0.97229E+00  1584   0.240E+01    0.117E+01
DAV:   3    -0.170647176653E+03    0.12576E+01   -0.66378E+00  1600   0.201E+01    0.301E+00
DAV:   4    -0.170621183012E+03    0.25994E-01   -0.58057E-01  1520   0.655E+00    0.163E+00
DAV:   5    -0.170633308826E+03   -0.12126E-01   -0.31280E-01  1552   0.414E+00    0.203E+00
DAV:   6    -0.170606114118E+03    0.27195E-01   -0.26235E-01  1608   0.359E+00    0.116E+00
DAV:   7    -0.170607621805E+03   -0.15077E-02   -0.11830E-01  1616   0.267E+00    0.115E+00
DAV:   8    -0.170601001493E+03    0.66203E-02   -0.66129E-02  1616   0.185E+00    0.581E-01
DAV:   9    -0.170598229587E+03    0.27719E-02   -0.17784E-02  1408   0.924E-01    0.177E-01
DAV:  10    -0.170598164648E+03    0.64939E-04   -0.20528E-03  1528   0.337E-01    0.727E-02
DAV:  11    -0.170598148261E+03    0.16387E-04   -0.81688E-04  1312   0.194E-01    0.600E-02
DAV:  12    -0.170598131960E+03    0.16301E-04   -0.20517E-04  1512   0.109E-01    0.228E-02
DAV:  13    -0.170598130436E+03    0.15237E-05   -0.78594E-05  1192   0.576E-02
  15 F= -.17059813E+03 E0= -.17052712E+03  d E =-.577602E+00
       N       E                     dE             d eps       ncg     rms          rms(c)
DAV:   1    -0.171786243480E+03   -0.11881E+01   -0.23584E+02   816   0.577E+01    0.897E+00
DAV:   2    -0.186047938930E+03   -0.14262E+02   -0.11359E+02  1592   0.818E+01    0.382E+01
DAV:   3    -0.171947757410E+03    0.14100E+02   -0.67323E+01  1616   0.638E+01    0.976E+00
DAV:   4    -0.171738472306E+03    0.20929E+00   -0.84676E+00  1584   0.213E+01    0.476E+00
DAV:   5    -0.171909915628E+03   -0.17144E+00   -0.25812E+00  1536   0.114E+01    0.715E+00
DAV:   6    -0.171627997759E+03    0.28192E+00   -0.24944E+00  1608   0.128E+01    0.340E+00
DAV:   7    -0.171692364032E+03   -0.64366E-01   -0.12533E+00  1608   0.819E+00    0.375E+00
DAV:   8    -0.171561897736E+03    0.13047E+00   -0.73377E-01  1400   0.567E+00    0.830E-01
DAV:   9    -0.171563488820E+03   -0.15911E-02   -0.88164E-02  1328   0.200E+00    0.775E-01
DAV:  10    -0.171559812707E+03    0.36761E-02   -0.29104E-02  1600   0.123E+00    0.210E-01
DAV:  11    -0.171560202492E+03   -0.38979E-03   -0.84334E-03  1304   0.544E-01    0.263E-01
DAV:  12    -0.171559602569E+03    0.59992E-03   -0.47024E-03  1296   0.470E-01    0.657E-02
DAV:  13    -0.171559637169E+03   -0.34600E-04   -0.66614E-04  1352   0.172E-01    0.652E-02
DAV:  14    -0.171559597561E+03    0.39608E-04   -0.32494E-04  1296   0.130E-01    0.282E-02
DAV:  15    -0.171559594581E+03    0.29802E-05   -0.23424E-05   696   0.480E-02
  16 F= -.17155959E+03 E0= -.17147967E+03  d E =-.153907E+01
       N       E                     dE             d eps       ncg     rms          rms(c)
DAV:   1    -0.171649314313E+03   -0.89717E-01   -0.25143E+01   816   0.179E+01    0.268E+00
DAV:   2    -0.173027249863E+03   -0.13779E+01   -0.92545E+00  1616   0.237E+01    0.139E+01
DAV:   3    -0.171698567391E+03    0.13287E+01   -0.67711E+00  1616   0.215E+01    0.333E+00
DAV:   4    -0.171640742354E+03    0.57825E-01   -0.63007E-01  1496   0.682E+00    0.120E+00
DAV:   5    -0.171641191083E+03   -0.44873E-03   -0.20900E-01  1584   0.343E+00    0.154E+00
DAV:   6    -0.171626936899E+03    0.14254E-01   -0.16114E-01  1592   0.294E+00    0.925E-01
DAV:   7    -0.171629131513E+03   -0.21946E-02   -0.78556E-02  1632   0.214E+00    0.959E-01
DAV:   8    -0.171621812920E+03    0.73186E-02   -0.41641E-02  1620   0.139E+00    0.143E-01
DAV:   9    -0.171622015239E+03   -0.20232E-03   -0.44517E-03  1328   0.445E-01    0.153E-01
DAV:  10    -0.171621749384E+03    0.26586E-03   -0.18798E-03  1296   0.317E-01    0.417E-02
DAV:  11    -0.171621764142E+03   -0.14758E-04   -0.34931E-04  1304   0.120E-01    0.459E-02
DAV:  12    -0.171621748301E+03    0.15841E-04   -0.13157E-04  1296   0.833E-02    0.172E-02
DAV:  13    -0.171621753515E+03   -0.52139E-05   -0.58001E-05  1064   0.544E-02
  17 F= -.17162175E+03 E0= -.17154688E+03  d E =-.160123E+01
       N       E                     dE             d eps       ncg     rms          rms(c)
DAV:   1    -0.172394379205E+03   -0.77263E+00   -0.67377E+01   816   0.300E+01    0.578E+00
DAV:   2    -0.177917173111E+03   -0.55228E+01   -0.43606E+01  1632   0.477E+01    0.270E+01
DAV:   3    -0.172355653814E+03    0.55615E+01   -0.26998E+01  1624   0.420E+01    0.491E+00
DAV:   4    -0.172268649548E+03    0.87004E-01   -0.23448E+00  1416   0.132E+01    0.204E+00
DAV:   5    -0.172301839561E+03   -0.33190E-01   -0.84682E-01  1576   0.706E+00    0.335E+00
DAV:   6    -0.172234191844E+03    0.67648E-01   -0.52879E-01  1608   0.617E+00    0.200E+00
DAV:   7    -0.172223862420E+03    0.10329E-01   -0.18532E-01  1608   0.357E+00    0.124E+00
DAV:   8    -0.172212323786E+03    0.11539E-01   -0.82228E-02  1592   0.204E+00    0.329E-01
DAV:   9    -0.172213810726E+03   -0.14869E-02   -0.25603E-02  1328   0.106E+00    0.475E-01
DAV:  10    -0.172211613083E+03    0.21976E-02   -0.14680E-02  1312   0.818E-01    0.107E-01
DAV:  11    -0.172211795535E+03   -0.18245E-03   -0.33015E-03  1336   0.386E-01    0.140E-01
DAV:  12    -0.172211579630E+03    0.21591E-03   -0.12848E-03  1312   0.273E-01    0.310E-02
DAV:  13    -0.172211580058E+03   -0.42811E-06   -0.13834E-04  1296   0.752E-02    0.216E-02
DAV:  14    -0.172211579138E+03    0.92008E-06   -0.36240E-05   904   0.475E-02
  18 F= -.17221158E+03 E0= -.17213693E+03  d E =-.589826E+00
       N       E                     dE             d eps       ncg     rms          rms(c)
DAV:   1    -0.173098849017E+03   -0.88727E+00   -0.20554E+02   816   0.526E+01    0.101E+01
DAV:   2    -0.187368596097E+03   -0.14270E+02   -0.11992E+02  1632   0.822E+01    0.406E+01
DAV:   3    -0.172853709865E+03    0.14515E+02   -0.70324E+01  1616   0.663E+01    0.796E+00
DAV:   4    -0.172954993204E+03   -0.10128E+00   -0.80600E+00  1560   0.203E+01    0.618E+00
DAV:   5    -0.173072205226E+03   -0.11721E+00   -0.35282E+00  1600   0.155E+01    0.666E+00
DAV:   6    -0.172731410599E+03    0.34079E+00   -0.24625E+00  1600   0.135E+01    0.353E+00
DAV:   7    -0.172704950816E+03    0.26460E-01   -0.65989E-01  1616   0.644E+00    0.247E+00
DAV:   8    -0.172657523304E+03    0.47428E-01   -0.27699E-01  1608   0.363E+00    0.723E-01
DAV:   9    -0.172656232124E+03    0.12912E-02   -0.27398E-02  1480   0.114E+00    0.408E-01
DAV:  10    -0.172655879966E+03    0.35216E-03   -0.20534E-02  1280   0.988E-01    0.327E-01
DAV:  11    -0.172655548547E+03    0.33142E-03   -0.77676E-03  1416   0.641E-01    0.257E-01
DAV:  12    -0.172655072397E+03    0.47615E-03   -0.24776E-03  1304   0.330E-01    0.128E-01
DAV:  13    -0.172655012070E+03    0.60327E-04   -0.65709E-04  1616   0.162E-01    0.320E-02
DAV:  14    -0.172655016705E+03   -0.46351E-05   -0.16673E-04  1280   0.836E-02    0.334E-02
DAV:  15    -0.172655003567E+03    0.13138E-04   -0.74956E-05  1112   0.629E-02    0.100E-02
DAV:  16    -0.172655002548E+03    0.10185E-05   -0.60897E-06   504   0.194E-02
  19 F= -.17265500E+03 E0= -.17257988E+03  d E =-.103325E+01
       N       E                     dE             d eps       ncg     rms          rms(c)
DAV:   1    -0.173440744314E+03   -0.78574E+00   -0.12139E+02   856   0.523E+01    0.106E+01
DAV:   2    -0.195716584846E+03   -0.22276E+02   -0.15014E+02  1480   0.103E+02    0.536E+01
DAV:   3    -0.172694373861E+03    0.23022E+02   -0.63896E+01  1552   0.485E+01    0.413E+00
DAV:   4    -0.173494306076E+03   -0.79993E+00   -0.94486E+00  1544   0.175E+01    0.787E+00
DAV:   5    -0.173159377845E+03    0.33493E+00   -0.30034E+00  1616   0.135E+01    0.335E+00
DAV:   6    -0.173123064857E+03    0.36313E-01   -0.80411E-01  1584   0.753E+00    0.263E+00
DAV:   7    -0.173079046929E+03    0.44018E-01   -0.36699E-01  1608   0.445E+00    0.144E+00
DAV:   8    -0.173063447681E+03    0.15599E-01   -0.22301E-01  1392   0.314E+00    0.930E-01
DAV:   9    -0.173058129289E+03    0.53184E-02   -0.37617E-02  1304   0.136E+00    0.487E-01
DAV:  10    -0.173056760662E+03    0.13686E-02   -0.88796E-03  1296   0.645E-01    0.311E-01
DAV:  11    -0.173056786977E+03   -0.26314E-04   -0.70632E-03  1328   0.565E-01    0.268E-01
DAV:  12    -0.173056196634E+03    0.59034E-03   -0.44037E-03  1432   0.455E-01    0.102E-01
DAV:  13    -0.173056279425E+03   -0.82791E-04   -0.10715E-03  1352   0.217E-01    0.951E-02
DAV:  14    -0.173056211001E+03    0.68424E-04   -0.63573E-04  1320   0.176E-01    0.335E-02
DAV:  15    -0.173056216862E+03   -0.58610E-05   -0.57841E-05  1016   0.617E-02
  20 F= -.17305622E+03 E0= -.17297451E+03  d E =-.401214E+00
       N       E                     dE             d eps       ncg     rms          rms(c)
DAV:   1    -0.173073182750E+03   -0.16972E-01   -0.23738E+00   828   0.672E+00    0.162E+00
DAV:   2    -0.173748646301E+03   -0.67546E+00   -0.38201E+00  1616   0.158E+01    0.113E+01
DAV:   3    -0.173060262852E+03    0.68838E+00   -0.27873E+00  1608   0.125E+01    0.896E-01
DAV:   4    -0.173070396179E+03   -0.10133E-01   -0.17464E-01  1520   0.290E+00    0.111E+00
DAV:   5    -0.173067690798E+03    0.27054E-02   -0.52381E-02  1496   0.188E+00    0.646E-01
DAV:   6    -0.173063956198E+03    0.37346E-02   -0.32320E-02  1520   0.121E+00    0.274E-01
DAV:   7    -0.173063535906E+03    0.42029E-03   -0.43324E-03  1408   0.443E-01    0.139E-01
DAV:   8    -0.173063399200E+03    0.13671E-03   -0.22331E-03  1312   0.314E-01    0.848E-02
DAV:   9    -0.173063337886E+03    0.61314E-04   -0.53791E-04  1320   0.166E-01    0.512E-02
DAV:  10    -0.173063312706E+03    0.25180E-04   -0.19692E-04  1360   0.101E-01    0.264E-02
DAV:  11    -0.173063311772E+03    0.93423E-06   -0.46778E-05   936   0.579E-02
  21 F= -.17306331E+03 E0= -.17298168E+03  d E =-.408309E+00
       N       E                     dE             d eps       ncg     rms          rms(c)
DAV:   1    -0.173566606898E+03   -0.50329E+00   -0.89595E+01   816   0.357E+01    0.702E+00
DAV:   2    -0.182619811987E+03   -0.90532E+01   -0.62374E+01  1616   0.623E+01    0.360E+01
DAV:   3    -0.173371005101E+03    0.92488E+01   -0.40179E+01  1624   0.529E+01    0.440E+00
DAV:   4    -0.173616449013E+03   -0.24544E+00   -0.38945E+00  1600   0.123E+01    0.467E+00
DAV:   5    -0.173545506758E+03    0.70942E-01   -0.83619E-01  1544   0.855E+00    0.324E+00
DAV:   6    -0.173520375206E+03    0.25132E-01   -0.48954E-01  1544   0.531E+00    0.228E+00
DAV:   7    -0.173484904807E+03    0.35470E-01   -0.32194E-01  1616   0.384E+00    0.910E-01
DAV:   8    -0.173486873158E+03   -0.19684E-02   -0.78166E-02  1320   0.181E+00    0.998E-01
DAV:   9    -0.173481444863E+03    0.54283E-02   -0.22170E-02  1352   0.111E+00    0.596E-01
DAV:  10    -0.173480935175E+03    0.50969E-03   -0.97524E-03  1472   0.669E-01    0.434E-01
DAV:  11    -0.173479903860E+03    0.10313E-02   -0.56013E-03  1504   0.515E-01    0.195E-01
DAV:  12    -0.173479868081E+03    0.35779E-04   -0.62600E-04  1376   0.164E-01    0.150E-01
DAV:  13    -0.173479827409E+03    0.40671E-04   -0.16244E-04  1312   0.855E-02    0.124E-01
DAV:  14    -0.173479747431E+03    0.79978E-04   -0.25352E-04  1616   0.114E-01    0.307E-02
DAV:  15    -0.173479742361E+03    0.50702E-05   -0.24907E-05   736   0.387E-02
  22 F= -.17347974E+03 E0= -.17341075E+03  d E =-.416431E+00
       N       E                     dE             d eps       ncg     rms          rms(c)
DAV:   1    -0.173567161716E+03   -0.87414E-01   -0.24928E+01   816   0.194E+01    0.371E+00
DAV:   2    -0.176412474755E+03   -0.28453E+01   -0.18857E+01  1616   0.337E+01    0.216E+01
DAV:   3    -0.173516374229E+03    0.28961E+01   -0.12755E+01  1632   0.307E+01    0.188E+00
DAV:   4    -0.173587312979E+03   -0.70939E-01   -0.10099E+00  1456   0.696E+00    0.260E+00
DAV:   5    -0.173565583150E+03    0.21730E-01   -0.25808E-01  1528   0.466E+00    0.165E+00
DAV:   6    -0.173558207545E+03    0.73756E-02   -0.14939E-01  1544   0.270E+00    0.116E+00
DAV:   7    -0.173548354374E+03    0.98532E-02   -0.69430E-02  1600   0.182E+00    0.298E-01
DAV:   8    -0.173549117324E+03   -0.76295E-03   -0.21156E-02  1328   0.926E-01    0.420E-01
DAV:   9    -0.173547735356E+03    0.13820E-02   -0.64514E-03  1488   0.604E-01    0.117E-01
DAV:  10    -0.173547923296E+03   -0.18794E-03   -0.23669E-03  1608   0.321E-01    0.153E-01
DAV:  11    -0.173547699307E+03    0.22399E-03   -0.14353E-03  1336   0.273E-01    0.331E-02
DAV:  12    -0.173547709454E+03   -0.10147E-04   -0.14969E-04  1264   0.859E-02    0.335E-02
DAV:  13    -0.173547703490E+03    0.59633E-05   -0.45773E-05   864   0.589E-02
  23 F= -.17354770E+03 E0= -.17348326E+03  d E =-.484392E+00
       N       E                     dE             d eps       ncg     rms          rms(c)
DAV:   1    -0.173754167986E+03   -0.20646E+00   -0.24694E+01   816   0.201E+01    0.347E+00
DAV:   2    -0.176172284065E+03   -0.24181E+01   -0.16220E+01  1616   0.326E+01    0.198E+01
DAV:   3    -0.173734327033E+03    0.24380E+01   -0.10248E+01  1608   0.234E+01    0.169E+00
DAV:   4    -0.173769153877E+03   -0.34827E-01   -0.68162E-01  1360   0.563E+00    0.146E+00
DAV:   5    -0.173765768746E+03    0.33851E-02   -0.21325E-01  1560   0.400E+00    0.190E+00
DAV:   6    -0.173751297894E+03    0.14471E-01   -0.13933E-01  1544   0.334E+00    0.942E-01
DAV:   7    -0.173745595377E+03    0.57025E-02   -0.36877E-02  1592   0.156E+00    0.395E-01
DAV:   8    -0.173744323473E+03    0.12719E-02   -0.19178E-02  1312   0.885E-01    0.206E-01
DAV:   9    -0.173743982771E+03    0.34070E-03   -0.21680E-03  1320   0.346E-01    0.671E-02
DAV:  10    -0.173744024342E+03   -0.41571E-04   -0.76456E-04  1328   0.185E-01    0.847E-02
DAV:  11    -0.173743966912E+03    0.57430E-04   -0.45455E-04  1424   0.150E-01    0.305E-02
DAV:  12    -0.173743963938E+03    0.29735E-05   -0.12273E-04  1280   0.748E-02    0.230E-02
DAV:  13    -0.173743960968E+03    0.29699E-05   -0.13428E-05   552   0.370E-02
  24 F= -.17374396E+03 E0= -.17367316E+03  d E =-.196257E+00
       N       E                     dE             d eps       ncg     rms          rms(c)
DAV:   1    -0.173804275818E+03   -0.60312E-01   -0.18714E+01   816   0.174E+01    0.304E+00
DAV:   2    -0.175664764690E+03   -0.18605E+01   -0.12203E+01  1616   0.284E+01    0.175E+01
DAV:   3    -0.173786756878E+03    0.18780E+01   -0.81109E+00  1608   0.209E+01    0.141E+00
DAV:   4    -0.173815338800E+03   -0.28582E-01   -0.52050E-01  1368   0.487E+00    0.132E+00
DAV:   5    -0.173811639031E+03    0.36998E-02   -0.17212E-01  1568   0.356E+00    0.165E+00
DAV:   6    -0.173800094286E+03    0.11545E-01   -0.10462E-01  1536   0.286E+00    0.787E-01
DAV:   7    -0.173797113794E+03    0.29805E-02   -0.35189E-02  1632   0.144E+00    0.454E-01
DAV:   8    -0.173795047316E+03    0.20665E-02   -0.20189E-02  1296   0.904E-01    0.163E-01
DAV:   9    -0.173795031640E+03    0.15676E-04   -0.26896E-03  1360   0.381E-01    0.134E-01
DAV:  10    -0.173794841154E+03    0.19049E-03   -0.12150E-03  1384   0.258E-01    0.488E-02
DAV:  11    -0.173794839183E+03    0.19709E-05   -0.21974E-04  1448   0.107E-01    0.297E-02
DAV:  12    -0.173794834037E+03    0.51454E-05   -0.81954E-05  1128   0.591E-02
  25 F= -.17379483E+03 E0= -.17372241E+03  d E =-.247131E+00
       N       E                     dE             d eps       ncg     rms          rms(c)
DAV:   1    -0.174204095266E+03   -0.40926E+00   -0.24878E+01   856   0.259E+01    0.761E+00
DAV:   2    -0.183589070777E+03   -0.93850E+01   -0.56922E+01  1616   0.691E+01    0.380E+01
DAV:   3    -0.173732341855E+03    0.98567E+01   -0.43216E+01  1608   0.557E+01    0.384E+00
DAV:   4    -0.174062203749E+03   -0.32986E+00   -0.47220E+00  1536   0.140E+01    0.528E+00
DAV:   5    -0.173964955808E+03    0.97248E-01   -0.11431E+00  1560   0.922E+00    0.355E+00
DAV:   6    -0.173919552661E+03    0.45403E-01   -0.41333E-01  1576   0.498E+00    0.241E+00
DAV:   7    -0.173882903216E+03    0.36649E-01   -0.21279E-01  1616   0.359E+00    0.610E-01
DAV:   8    -0.173884033150E+03   -0.11299E-02   -0.50610E-02  1336   0.141E+00    0.666E-01
DAV:   9    -0.173882700614E+03    0.13325E-02   -0.10227E-02  1296   0.767E-01    0.547E-01
DAV:  10    -0.173882741707E+03   -0.41093E-04   -0.90693E-03  1400   0.642E-01    0.486E-01
DAV:  11    -0.173881264361E+03    0.14773E-02   -0.63940E-03  1472   0.554E-01    0.219E-01
DAV:  12    -0.173881219302E+03    0.45059E-04   -0.94522E-04  1344   0.206E-01    0.176E-01
DAV:  13    -0.173881141256E+03    0.78046E-04   -0.32146E-04  1360   0.120E-01    0.127E-01
DAV:  14    -0.173881071931E+03    0.69324E-04   -0.19089E-04  1536   0.960E-02    0.564E-02
DAV:  15    -0.173881059165E+03    0.12766E-04   -0.49362E-05   992   0.501E-02    0.388E-02
DAV:  16    -0.173881048887E+03    0.10277E-04   -0.22840E-05   640   0.364E-02    0.147E-02
DAV:  17    -0.173881048846E+03    0.41682E-07   -0.13912E-05   556   0.164E-02
  26 F= -.17388105E+03 E0= -.17381824E+03  d E =-.862148E-01
       N       E                     dE             d eps       ncg     rms          rms(c)
DAV:   1    -0.173896820113E+03   -0.15771E-01   -0.80110E-01  1000   0.482E+00    0.135E+00
DAV:   2    -0.174248840206E+03   -0.35202E+00   -0.20158E+00  1616   0.121E+01    0.764E+00
DAV:   3    -0.173881709300E+03    0.36713E+00   -0.15793E+00  1608   0.103E+01    0.402E-01
DAV:   4    -0.173890773411E+03   -0.90641E-02   -0.10477E-01  1352   0.216E+00    0.814E-01
DAV:   5    -0.173886675602E+03    0.40978E-02   -0.32219E-02  1576   0.152E+00    0.435E-01
DAV:   6    -0.173885717691E+03    0.95791E-03   -0.72772E-03  1512   0.798E-01    0.234E-01
DAV:   7    -0.173885379899E+03    0.33779E-03   -0.17752E-03  1568   0.335E-01    0.722E-02
DAV:   8    -0.173885377692E+03    0.22061E-05   -0.79911E-04  1320   0.185E-01    0.706E-02
DAV:   9    -0.173885312398E+03    0.65294E-04   -0.38299E-04  1384   0.150E-01    0.381E-02
DAV:  10    -0.173885307232E+03    0.51665E-05   -0.91489E-05  1176   0.691E-02
  27 F= -.17388531E+03 E0= -.17382080E+03  d E =-.904732E-01
       N       E                     dE             d eps       ncg     rms          rms(c)
DAV:   1    -0.173950305640E+03   -0.64993E-01   -0.12445E+01   816   0.145E+01    0.266E+00
DAV:   2    -0.175344712335E+03   -0.13944E+01   -0.89491E+00  1608   0.247E+01    0.147E+01
DAV:   3    -0.173930515556E+03    0.14142E+01   -0.59830E+00  1592   0.184E+01    0.107E+00
DAV:   4    -0.173958960486E+03   -0.28445E-01   -0.37060E-01  1416   0.417E+00    0.141E+00
DAV:   5    -0.173949519790E+03    0.94407E-02   -0.11571E-01  1584   0.325E+00    0.103E+00
DAV:   6    -0.173945325385E+03    0.41944E-02   -0.60951E-02  1608   0.216E+00    0.619E-01
DAV:   7    -0.173942434878E+03    0.28905E-02   -0.22852E-02  1584   0.108E+00    0.298E-01
DAV:   8    -0.173941707161E+03    0.72772E-03   -0.95299E-03  1344   0.667E-01    0.147E-01
DAV:   9    -0.173941520356E+03    0.18681E-03   -0.15247E-03  1376   0.289E-01    0.767E-02
DAV:  10    -0.173941459202E+03    0.61154E-04   -0.45520E-04  1328   0.162E-01    0.351E-02
DAV:  11    -0.173941457476E+03    0.17255E-05   -0.75469E-05  1152   0.645E-02
  28 F= -.17394146E+03 E0= -.17388080E+03  d E =-.561502E-01
       N       E                     dE             d eps       ncg     rms          rms(c)
DAV:   1    -0.173942543778E+03   -0.10846E-02   -0.22146E-01   824   0.187E+00    0.353E-01
DAV:   2    -0.173967320621E+03   -0.24777E-01   -0.14945E-01  1608   0.325E+00    0.200E+00
DAV:   3    -0.173942210939E+03    0.25110E-01   -0.10607E-01  1616   0.268E+00    0.138E-01
DAV:   4    -0.173942594875E+03   -0.38394E-03   -0.61939E-03  1296   0.534E-01    0.144E-01
DAV:   5    -0.173942446009E+03    0.14887E-03   -0.17031E-03  1488   0.335E-01    0.102E-01
DAV:   6    -0.173942469255E+03   -0.23246E-04   -0.10144E-03  1632   0.274E-01    0.131E-01
DAV:   7    -0.173942382000E+03    0.87255E-04   -0.56496E-04  1612   0.221E-01    0.564E-02
DAV:   8    -0.173942355311E+03    0.26689E-04   -0.22507E-04  1560   0.113E-01    0.193E-02
DAV:   9    -0.173942352882E+03    0.24295E-05   -0.29703E-05   696   0.475E-02
  29 F= -.17394235E+03 E0= -.17388199E+03  d E =-.570456E-01
       N       E                     dE             d eps       ncg     rms          rms(c)
DAV:   1    -0.173968011046E+03   -0.25656E-01   -0.24341E+00   820   0.625E+00    0.132E+00
DAV:   2    -0.174295988185E+03   -0.32798E+00   -0.21005E+00  1632   0.123E+01    0.727E+00
DAV:   3    -0.173963904063E+03    0.33208E+00   -0.16331E+00  1632   0.105E+01    0.856E-01
DAV:   4    -0.173963644394E+03    0.25967E-03   -0.10126E-01  1344   0.241E+00    0.500E-01
DAV:   5    -0.173966261894E+03   -0.26175E-02   -0.31006E-02  1496   0.166E+00    0.825E-01
DAV:   6    -0.173961762640E+03    0.44993E-02   -0.25995E-02  1520   0.148E+00    0.243E-01
DAV:   7    -0.173961839281E+03   -0.76641E-04   -0.66668E-03  1480   0.557E-01    0.213E-01
DAV:   8    -0.173961373656E+03    0.46562E-03   -0.36796E-03  1456   0.421E-01    0.667E-02
DAV:   9    -0.173961412025E+03   -0.38369E-04   -0.79932E-04  1496   0.197E-01    0.759E-02
DAV:  10    -0.173961344868E+03    0.67157E-04   -0.39930E-04  1272   0.142E-01    0.170E-02
DAV:  11    -0.173961349958E+03   -0.50892E-05   -0.89844E-05  1200   0.634E-02
  30 F= -.17396135E+03 E0= -.17390268E+03  d E =-.189971E-01
       N       E                     dE             d eps       ncg     rms          rms(c)
DAV:   1    -0.173971630762E+03   -0.10286E-01   -0.18673E+00   816   0.548E+00    0.115E+00
DAV:   2    -0.174217794874E+03   -0.24616E+00   -0.15862E+00  1616   0.107E+01    0.625E+00
DAV:   3    -0.173968850436E+03    0.24894E+00   -0.12077E+00  1632   0.916E+00    0.772E-01
DAV:   4    -0.173968169727E+03    0.68071E-03   -0.76374E-02  1336   0.211E+00    0.416E-01
DAV:   5    -0.173970371457E+03   -0.22017E-02   -0.23436E-02  1520   0.145E+00    0.734E-01
DAV:   6    -0.173966862599E+03    0.35089E-02   -0.19578E-02  1528   0.130E+00    0.205E-01
DAV:   7    -0.173966943295E+03   -0.80697E-04   -0.48233E-03  1480   0.482E-01    0.184E-01
DAV:   8    -0.173966591569E+03    0.35173E-03   -0.26958E-03  1440   0.365E-01    0.573E-02
DAV:   9    -0.173966620113E+03   -0.28543E-04   -0.59408E-04  1448   0.169E-01    0.649E-02
DAV:  10    -0.173966571722E+03    0.48390E-04   -0.29143E-04  1272   0.122E-01    0.153E-02
DAV:  11    -0.173966574822E+03   -0.31000E-05   -0.63768E-05  1104   0.544E-02
  31 F= -.17396657E+03 E0= -.17390927E+03  d E =-.242219E-01
       N       E                     dE             d eps       ncg     rms          rms(c)
DAV:   1    -0.173989376882E+03   -0.22805E-01   -0.14067E+00   868   0.567E+00    0.151E+00
DAV:   2    -0.174458455094E+03   -0.46908E+00   -0.28200E+00  1632   0.144E+01    0.872E+00
DAV:   3    -0.173973545482E+03    0.48491E+00   -0.20703E+00  1600   0.117E+01    0.557E-01
DAV:   4    -0.173983606971E+03   -0.10061E-01   -0.12432E-01  1432   0.258E+00    0.917E-01
DAV:   5    -0.173980505195E+03    0.31018E-02   -0.39125E-02  1464   0.188E+00    0.554E-01
DAV:   6    -0.173978457638E+03    0.20476E-02   -0.16848E-02  1560   0.110E+00    0.275E-01
DAV:   7    -0.173978096551E+03    0.36109E-03   -0.42826E-03  1568   0.516E-01    0.159E-01
DAV:   8    -0.173977845964E+03    0.25059E-03   -0.22400E-03  1288   0.310E-01    0.596E-02
DAV:   9    -0.173977844932E+03    0.10318E-05   -0.63000E-04  1360   0.177E-01    0.696E-02
DAV:  10    -0.173977791152E+03    0.53781E-04   -0.36306E-04  1312   0.130E-01    0.245E-02
DAV:  11    -0.173977790116E+03    0.10355E-05   -0.31967E-05   800   0.470E-02
  32 F= -.17397779E+03 E0= -.17392044E+03  d E =-.112153E-01
       N       E                     dE             d eps       ncg     rms          rms(c)
DAV:   1    -0.173985537197E+03   -0.77460E-02   -0.63396E-01   864   0.379E+00    0.101E+00
DAV:   2    -0.174194530190E+03   -0.20899E+00   -0.12446E+00  1616   0.957E+00    0.584E+00
DAV:   3    -0.173978541140E+03    0.21599E+00   -0.92589E-01  1600   0.791E+00    0.350E-01
DAV:   4    -0.173982863230E+03   -0.43221E-02   -0.53491E-02  1408   0.169E+00    0.579E-01
DAV:   5    -0.173981528098E+03    0.13351E-02   -0.17137E-02  1456   0.125E+00    0.382E-01
DAV:   6    -0.173980679048E+03    0.84905E-03   -0.69237E-03  1536   0.732E-01    0.200E-01
DAV:   7    -0.173980485279E+03    0.19377E-03   -0.20419E-03  1592   0.355E-01    0.110E-01
DAV:   8    -0.173980368057E+03    0.11722E-03   -0.10466E-03  1292   0.211E-01    0.393E-02
DAV:   9    -0.173980367728E+03    0.32912E-06   -0.28309E-04  1360   0.119E-01    0.463E-02
DAV:  10    -0.173980343665E+03    0.24063E-04   -0.16429E-04  1264   0.881E-02    0.160E-02
DAV:  11    -0.173980343136E+03    0.52926E-06   -0.10412E-05   544   0.305E-02
  33 F= -.17398034E+03 E0= -.17392291E+03  d E =-.137683E-01
       N       E                     dE             d eps       ncg     rms          rms(c)
DAV:   1    -0.173990572955E+03   -0.10229E-01   -0.95388E-01   816   0.343E+00    0.444E-01
DAV:   2    -0.174016860037E+03   -0.26287E-01   -0.17577E-01  1568   0.338E+00    0.201E+00
DAV:   3    -0.173991547067E+03    0.25313E-01   -0.11423E-01  1584   0.289E+00    0.297E-01
DAV:   4    -0.173991853939E+03   -0.30687E-03   -0.14575E-02  1440   0.902E-01    0.305E-01
DAV:   5    -0.173991819507E+03    0.34432E-04   -0.83685E-03  1568   0.857E-01    0.400E-01
DAV:   6    -0.173990877309E+03    0.94220E-03   -0.64080E-03  1552   0.719E-01    0.128E-01
DAV:   7    -0.173990821863E+03    0.55446E-04   -0.11513E-03  1560   0.250E-01    0.751E-02
DAV:   8    -0.173990764063E+03    0.57800E-04   -0.45172E-04  1312   0.154E-01    0.245E-02
DAV:   9    -0.173990766282E+03   -0.22189E-05   -0.97430E-05  1160   0.700E-02
  34 F= -.17399077E+03 E0= -.17393322E+03  d E =-.104231E-01
       N       E                     dE             d eps       ncg     rms          rms(c)
DAV:   1    -0.174003481028E+03   -0.12717E-01   -0.56207E+00   816   0.827E+00    0.106E+00
DAV:   2    -0.174147581176E+03   -0.14410E+00   -0.97819E-01  1584   0.795E+00    0.473E+00
DAV:   3    -0.174009790043E+03    0.13779E+00   -0.66925E-01  1600   0.685E+00    0.748E-01
DAV:   4    -0.174010859259E+03   -0.10692E-02   -0.83618E-02  1432   0.218E+00    0.730E-01
DAV:   5    -0.174011754477E+03   -0.89522E-03   -0.51412E-02  1592   0.214E+00    0.103E+00
DAV:   6    -0.174005203636E+03    0.65508E-02   -0.42072E-02  1584   0.180E+00    0.288E-01
DAV:   7    -0.174005039280E+03    0.16436E-03   -0.74250E-03  1440   0.617E-01    0.193E-01
DAV:   8    -0.174004641736E+03    0.39754E-03   -0.29380E-03  1312   0.399E-01    0.593E-02
DAV:   9    -0.174004681106E+03   -0.39370E-04   -0.73619E-04  1352   0.187E-01    0.811E-02
DAV:  10    -0.174004612338E+03    0.68768E-04   -0.44821E-04  1440   0.163E-01    0.218E-02
DAV:  11    -0.174004615230E+03   -0.28923E-05   -0.86254E-05  1216   0.628E-02
  35 F= -.17400462E+03 E0= -.17394673E+03  d E =-.242721E-01
       N       E                     dE             d eps       ncg     rms          rms(c)
DAV:   1    -0.174005375264E+03   -0.76293E-03   -0.63435E-01   816   0.280E+00    0.364E-01
DAV:   2    -0.174022886287E+03   -0.17511E-01   -0.11664E-01  1584   0.277E+00    0.164E+00
DAV:   3    -0.174006062308E+03    0.16824E-01   -0.75012E-02  1584   0.235E+00    0.245E-01
DAV:   4    -0.174006263480E+03   -0.20117E-03   -0.97272E-03  1456   0.737E-01    0.249E-01
DAV:   5    -0.174006289227E+03   -0.25747E-04   -0.55537E-03  1560   0.706E-01    0.334E-01
DAV:   6    -0.174005620541E+03    0.66869E-03   -0.44201E-03  1552   0.597E-01    0.103E-01
DAV:   7    -0.174005586417E+03    0.34124E-04   -0.77318E-04  1528   0.205E-01    0.608E-02
DAV:   8    -0.174005548292E+03    0.38125E-04   -0.29992E-04  1296   0.125E-01    0.203E-02
DAV:   9    -0.174005551563E+03   -0.32713E-05   -0.74637E-05  1096   0.635E-02
  36 F= -.17400555E+03 E0= -.17394752E+03  d E =-.252084E-01
       N       E                     dE             d eps       ncg     rms          rms(c)
DAV:   1    -0.174016105706E+03   -0.10557E-01   -0.10470E+00   816   0.415E+00    0.855E-01
DAV:   2    -0.174145744556E+03   -0.12964E+00   -0.80948E-01  1568   0.772E+00    0.459E+00
DAV:   3    -0.174013100217E+03    0.13264E+00   -0.56437E-01  1568   0.634E+00    0.379E-01
DAV:   4    -0.174015105398E+03   -0.20052E-02   -0.43500E-02  1328   0.142E+00    0.387E-01
DAV:   5    -0.174014358647E+03    0.74675E-03   -0.13704E-02  1520   0.104E+00    0.390E-01
DAV:   6    -0.174013676513E+03    0.68213E-03   -0.64136E-03  1536   0.727E-01    0.227E-01
DAV:   7    -0.174013425975E+03    0.25054E-03   -0.20998E-03  1592   0.365E-01    0.105E-01
DAV:   8    -0.174013328367E+03    0.97608E-04   -0.11970E-03  1472   0.234E-01    0.504E-02
DAV:   9    -0.174013323674E+03    0.46935E-05   -0.22613E-04  1416   0.111E-01    0.409E-02
DAV:  10    -0.174013304359E+03    0.19315E-04   -0.10964E-04  1176   0.793E-02    0.834E-03
DAV:  11    -0.174013305570E+03   -0.12107E-05   -0.10591E-05   520   0.292E-02
  37 F= -.17401331E+03 E0= -.17395507E+03  d E =-.775401E-02
       N       E                     dE             d eps       ncg     rms          rms(c)
DAV:   1    -0.174047827639E+03   -0.34523E-01   -0.91494E+00   816   0.125E+01    0.255E+00
DAV:   2    -0.175227174323E+03   -0.11793E+01   -0.75895E+00  1600   0.231E+01    0.137E+01
DAV:   3    -0.174019354673E+03    0.12078E+01   -0.50379E+00  1584   0.179E+01    0.109E+00
DAV:   4    -0.174042838383E+03   -0.23484E-01   -0.39969E-01  1368   0.430E+00    0.136E+00
DAV:   5    -0.174037344465E+03    0.54939E-02   -0.13980E-01  1552   0.348E+00    0.138E+00
DAV:   6    -0.174026608771E+03    0.10736E-01   -0.73683E-02  1568   0.237E+00    0.547E-01
DAV:   7    -0.174024572491E+03    0.20363E-02   -0.14383E-02  1608   0.889E-01    0.184E-01
DAV:   8    -0.174024588209E+03   -0.15717E-04   -0.80108E-03  1320   0.585E-01    0.213E-01
DAV:   9    -0.174024184462E+03    0.40375E-03   -0.23364E-03  1496   0.356E-01    0.535E-02
DAV:  10    -0.174024180211E+03    0.42514E-05   -0.38822E-04  1340   0.145E-01    0.438E-02
DAV:  11    -0.174024165918E+03    0.14292E-04   -0.10140E-04  1224   0.802E-02    0.112E-02
DAV:  12    -0.174024167869E+03   -0.19511E-05   -0.15647E-05   564   0.367E-02
  38 F= -.17402417E+03 E0= -.17396608E+03  d E =-.186163E-01
       N       E                     dE             d eps       ncg     rms          rms(c)
DAV:   1    -0.174032194952E+03   -0.80290E-02   -0.61703E-01   816   0.282E+00    0.375E-01
DAV:   2    -0.174042265904E+03   -0.10071E-01   -0.99130E-02  1592   0.219E+00    0.116E+00
DAV:   3    -0.174032728696E+03    0.95372E-02   -0.61551E-02  1632   0.194E+00    0.343E-01
DAV:   4    -0.174032713664E+03    0.15031E-04   -0.11529E-02  1544   0.869E-01    0.302E-01
DAV:   5    -0.174032183543E+03    0.53012E-03   -0.65817E-03  1592   0.647E-01    0.255E-01
DAV:   6    -0.174031782365E+03    0.40118E-03   -0.29522E-03  1600   0.494E-01    0.100E-01
DAV:   7    -0.174031789217E+03   -0.68522E-05   -0.87241E-04  1592   0.256E-01    0.842E-02
DAV:   8    -0.174031714610E+03    0.74607E-04   -0.46832E-04  1560   0.164E-01    0.252E-02
DAV:   9    -0.174031713113E+03    0.14966E-05   -0.99067E-05  1232   0.683E-02
  39 F= -.17403171E+03 E0= -.17397415E+03  d E =-.754524E-02
       N       E                     dE             d eps       ncg     rms          rms(c)
DAV:   1    -0.174054848995E+03   -0.23134E-01   -0.55456E+00   816   0.841E+00    0.111E+00
DAV:   2    -0.174137017641E+03   -0.82169E-01   -0.84617E-01  1600   0.630E+00    0.333E+00
DAV:   3    -0.174059927232E+03    0.77090E-01   -0.52180E-01  1632   0.562E+00    0.103E+00
DAV:   4    -0.174059813850E+03    0.11338E-03   -0.10548E-01  1552   0.258E+00    0.907E-01
DAV:   5    -0.174054931630E+03    0.48822E-02   -0.61208E-02  1592   0.195E+00    0.760E-01
DAV:   6    -0.174051322272E+03    0.36094E-02   -0.26191E-02  1600   0.148E+00    0.298E-01
DAV:   7    -0.174051396644E+03   -0.74372E-04   -0.78897E-03  1592   0.773E-01    0.252E-01
DAV:   8    -0.174050730860E+03    0.66578E-03   -0.41575E-03  1576   0.494E-01    0.767E-02
DAV:   9    -0.174050710892E+03    0.19967E-04   -0.86416E-04  1312   0.201E-01    0.536E-02
DAV:  10    -0.174050676075E+03    0.34818E-04   -0.16813E-04  1312   0.982E-02    0.140E-02
DAV:  11    -0.174050677268E+03   -0.11935E-05   -0.30833E-05   768   0.440E-02
  40 F= -.17405068E+03 E0= -.17399493E+03  d E =-.265094E-01
       N       E                     dE             d eps       ncg     rms          rms(c)
DAV:   1    -0.174074044801E+03   -0.23369E-01   -0.22072E+01   816   0.168E+01    0.214E+00
DAV:   2    -0.174331004140E+03   -0.25696E+00   -0.28364E+00  1584   0.114E+01    0.583E+00
DAV:   3    -0.174097425109E+03    0.23358E+00   -0.17476E+00  1632   0.103E+01    0.200E+00
DAV:   4    -0.174099960770E+03   -0.25357E-02   -0.40634E-01  1568   0.506E+00    0.188E+00
DAV:   5    -0.174077165328E+03    0.22795E-01   -0.25760E-01  1584   0.389E+00    0.145E+00
DAV:   6    -0.174064226268E+03    0.12939E-01   -0.95015E-02  1568   0.282E+00    0.587E-01
DAV:   7    -0.174064710573E+03   -0.48431E-03   -0.31515E-02  1600   0.156E+00    0.511E-01
DAV:   8    -0.174061952014E+03    0.27586E-02   -0.16833E-02  1552   0.100E+00    0.147E-01
DAV:   9    -0.174061889024E+03    0.62990E-04   -0.33973E-03  1304   0.396E-01    0.107E-01
DAV:  10    -0.174061755872E+03    0.13315E-03   -0.65290E-04  1328   0.194E-01    0.281E-02
DAV:  11    -0.174061765249E+03   -0.93762E-05   -0.16562E-04  1304   0.835E-02    0.340E-02
DAV:  12    -0.174061753766E+03    0.11482E-04   -0.65824E-05  1032   0.619E-02    0.111E-02
DAV:  13    -0.174061753254E+03    0.51202E-06   -0.16069E-05   496   0.293E-02
  41 F= -.17406175E+03 E0= -.17400832E+03  d E =-.375854E-01
       N       E                     dE             d eps       ncg     rms          rms(c)
DAV:   1    -0.174064254058E+03   -0.25003E-02   -0.19850E+00   816   0.513E+00    0.657E-01
DAV:   2    -0.174093438594E+03   -0.29185E-01   -0.28391E-01  1616   0.380E+00    0.199E+00
DAV:   3    -0.174066309966E+03    0.27129E-01   -0.17254E-01  1616   0.333E+00    0.581E-01
DAV:   4    -0.174066540621E+03   -0.23065E-03   -0.37278E-02  1544   0.151E+00    0.533E-01
DAV:   5    -0.174064383969E+03    0.21567E-02   -0.21512E-02  1560   0.112E+00    0.351E-01
DAV:   6    -0.174063559083E+03    0.82489E-03   -0.87839E-03  1584   0.749E-01    0.184E-01
DAV:   7    -0.174063654385E+03   -0.95302E-04   -0.27717E-03  1568   0.497E-01    0.208E-01
DAV:   8    -0.174063311048E+03    0.34334E-03   -0.17124E-03  1568   0.351E-01    0.402E-02
DAV:   9    -0.174063318897E+03   -0.78485E-05   -0.38371E-04  1320   0.134E-01    0.431E-02
DAV:  10    -0.174063297302E+03    0.21595E-04   -0.11541E-04  1232   0.822E-02    0.108E-02
DAV:  11    -0.174063297059E+03    0.24316E-06   -0.74516E-06   476   0.214E-02
  42 F= -.17406330E+03 E0= -.17400944E+03  d E =-.391292E-01
       N       E                     dE             d eps       ncg     rms          rms(c)
DAV:   1    -0.174074257639E+03   -0.10960E-01   -0.58135E-01   816   0.279E+00    0.412E-01
DAV:   2    -0.174094489016E+03   -0.20231E-01   -0.15600E-01  1616   0.305E+00    0.164E+00
DAV:   3    -0.174074560014E+03    0.19929E-01   -0.10328E-01  1616   0.267E+00    0.339E-01
DAV:   4    -0.174074535935E+03    0.24078E-04   -0.14195E-02  1624   0.953E-01    0.283E-01
DAV:   5    -0.174073708329E+03    0.82761E-03   -0.60694E-03  1624   0.578E-01    0.113E-01
DAV:   6    -0.174073745580E+03   -0.37251E-04   -0.18694E-03  1624   0.316E-01    0.125E-01
DAV:   7    -0.174073644568E+03    0.10101E-03   -0.80613E-04  1616   0.238E-01    0.808E-02
DAV:   8    -0.174073601187E+03    0.43381E-04   -0.22006E-04  1520   0.130E-01    0.199E-02
DAV:   9    -0.174073605729E+03   -0.45420E-05   -0.84886E-05  1208   0.676E-02
  43 F= -.17407361E+03 E0= -.17402009E+03  d E =-.103087E-01
       N       E                     dE             d eps       ncg     rms          rms(c)
DAV:   1    -0.174096624385E+03   -0.23023E-01   -0.52427E+00   816   0.839E+00    0.124E+00
DAV:   2    -0.174275359521E+03   -0.17874E+00   -0.14743E+00  1616   0.912E+00    0.488E+00
DAV:   3    -0.174099035578E+03    0.17632E+00   -0.97924E-01  1616   0.794E+00    0.101E+00
DAV:   4    -0.174099211779E+03   -0.17620E-03   -0.13393E-01  1616   0.284E+00    0.859E-01
DAV:   5    -0.174091809118E+03    0.74027E-02   -0.56550E-02  1616   0.176E+00    0.362E-01
DAV:   6    -0.174092091679E+03   -0.28256E-03   -0.16503E-02  1624   0.984E-01    0.412E-01
DAV:   7    -0.174091400304E+03    0.69138E-03   -0.84734E-03  1592   0.839E-01    0.313E-01
DAV:   8    -0.174090702634E+03    0.69767E-03   -0.30395E-03  1616   0.485E-01    0.539E-02
DAV:   9    -0.174090754294E+03   -0.51661E-04   -0.92278E-04  1304   0.203E-01    0.774E-02
DAV:  10    -0.174090686804E+03    0.67490E-04   -0.45308E-04  1288   0.147E-01    0.166E-02
DAV:  11    -0.174090687164E+03   -0.35980E-06   -0.32463E-05   848   0.446E-02
  44 F= -.17409069E+03 E0= -.17403765E+03  d E =-.273901E-01
       N       E                     dE             d eps       ncg     rms          rms(c)
DAV:   1    -0.174091847073E+03   -0.11603E-02   -0.39403E-01   816   0.229E+00    0.334E-01
DAV:   2    -0.174104173240E+03   -0.12326E-01   -0.10127E-01  1632   0.239E+00    0.128E+00
DAV:   3    -0.174092086163E+03    0.12087E-01   -0.66058E-02  1632   0.209E+00    0.280E-01
DAV:   4    -0.174092055936E+03    0.30227E-04   -0.94881E-03  1616   0.778E-01    0.234E-01
DAV:   5    -0.174091521451E+03    0.53448E-03   -0.41843E-03  1592   0.478E-01    0.111E-01
DAV:   6    -0.174091511824E+03    0.96270E-05   -0.12203E-03  1624   0.281E-01    0.111E-01
DAV:   7    -0.174091482067E+03    0.29756E-04   -0.62704E-04  1576   0.233E-01    0.890E-02
DAV:   8    -0.174091421159E+03    0.60908E-04   -0.29522E-04  1560   0.139E-01    0.150E-02
DAV:   9    -0.174091425033E+03   -0.38735E-05   -0.70555E-05  1152   0.570E-02
  45 F= -.17409143E+03 E0= -.17403845E+03  d E =-.281280E-01
       N       E                     dE             d eps       ncg     rms          rms(c)
DAV:   1    -0.174100767629E+03   -0.93465E-02   -0.62642E-01   816   0.296E+00    0.379E-01
DAV:   2    -0.174107775875E+03   -0.70082E-02   -0.66117E-02  1624   0.193E+00    0.103E+00
DAV:   3    -0.174101241937E+03    0.65339E-02   -0.37504E-02  1632   0.173E+00    0.274E-01
DAV:   4    -0.174101933981E+03   -0.69204E-03   -0.13000E-02  1552   0.868E-01    0.356E-01
DAV:   5    -0.174100721857E+03    0.12121E-02   -0.93644E-03  1592   0.769E-01    0.213E-01
DAV:   6    -0.174100477214E+03    0.24464E-03   -0.26292E-03  1616   0.397E-01    0.108E-01
DAV:   7    -0.174100467117E+03    0.10097E-04   -0.77185E-04  1576   0.223E-01    0.886E-02
DAV:   8    -0.174100392322E+03    0.74794E-04   -0.45107E-04  1592   0.151E-01    0.179E-02
DAV:   9    -0.174100396852E+03   -0.45292E-05   -0.88934E-05  1208   0.637E-02
  46 F= -.17410040E+03 E0= -.17404685E+03  d E =-.897182E-02
       N       E                     dE             d eps       ncg     rms          rms(c)
DAV:   1    -0.174119078492E+03   -0.18686E-01   -0.56416E+00   816   0.886E+00    0.115E+00
DAV:   2    -0.174186959053E+03   -0.67881E-01   -0.62762E-01  1632   0.598E+00    0.322E+00
DAV:   3    -0.174122884152E+03    0.64075E-01   -0.36359E-01  1632   0.543E+00    0.813E-01
DAV:   4    -0.174129467987E+03   -0.65838E-02   -0.11790E-01  1552   0.264E+00    0.108E+00
DAV:   5    -0.174118539030E+03    0.10929E-01   -0.83744E-02  1592   0.233E+00    0.667E-01
DAV:   6    -0.174116035685E+03    0.25033E-02   -0.24902E-02  1608   0.123E+00    0.335E-01
DAV:   7    -0.174115955660E+03    0.80025E-04   -0.76411E-03  1608   0.695E-01    0.271E-01
DAV:   8    -0.174115250631E+03    0.70503E-03   -0.42512E-03  1616   0.463E-01    0.540E-02
DAV:   9    -0.174115299640E+03   -0.49009E-04   -0.86640E-04  1304   0.198E-01    0.819E-02
DAV:  10    -0.174115222930E+03    0.76710E-04   -0.49715E-04  1288   0.156E-01    0.152E-02
DAV:  11    -0.174115226415E+03   -0.34845E-05   -0.55837E-05   960   0.543E-02
  47 F= -.17411523E+03 E0= -.17405974E+03  d E =-.238014E-01
       N       E                     dE             d eps       ncg     rms          rms(c)
DAV:   1    -0.174143413812E+03   -0.28191E-01   -0.17333E+00   920   0.712E+00    0.201E+00
DAV:   2    -0.174971533607E+03   -0.82812E+00   -0.49751E+00  1624   0.184E+01    0.116E+01
DAV:   3    -0.174114561910E+03    0.85697E+00   -0.33856E+00  1624   0.147E+01    0.654E-01
DAV:   4    -0.174129156219E+03   -0.14594E-01   -0.22019E-01  1328   0.294E+00    0.770E-01
DAV:   5    -0.174123275769E+03    0.58805E-02   -0.49518E-02  1336   0.170E+00    0.333E-01
DAV:   6    -0.174124036277E+03   -0.76051E-03   -0.12807E-02  1616   0.981E-01    0.481E-01
DAV:   7    -0.174122677851E+03    0.13584E-02   -0.66844E-03  1584   0.734E-01    0.192E-01
DAV:   8    -0.174122435365E+03    0.24249E-03   -0.18238E-03  1572   0.346E-01    0.801E-02
DAV:   9    -0.174122411961E+03    0.23404E-04   -0.87256E-04  1304   0.208E-01    0.805E-02
DAV:  10    -0.174122351294E+03    0.60667E-04   -0.41757E-04  1272   0.140E-01    0.355E-02
DAV:  11    -0.174122349189E+03    0.21044E-05   -0.73254E-05  1080   0.642E-02
  48 F= -.17412235E+03 E0= -.17406629E+03  d E =-.712277E-02
       N       E                     dE             d eps       ncg     rms          rms(c)
DAV:   1    -0.174122466676E+03   -0.11538E-03   -0.73290E-03   936   0.456E-01    0.127E-01
DAV:   2    -0.174125715030E+03   -0.32484E-02   -0.18134E-02  1632   0.115E+00    0.748E-01
DAV:   3    -0.174122354344E+03    0.33607E-02   -0.14172E-02  1632   0.986E-01    0.408E-02
DAV:   4    -0.174122414496E+03   -0.60152E-04   -0.88004E-04  1320   0.193E-01    0.549E-02
DAV:   5    -0.174122389450E+03    0.25046E-04   -0.21139E-04  1464   0.120E-01    0.329E-02
DAV:   6    -0.174122387695E+03    0.17549E-05   -0.42359E-05   984   0.711E-02
  49 F= -.17412239E+03 E0= -.17406625E+03  d E =-.716128E-02
       N       E                     dE             d eps       ncg     rms          rms(c)
DAV:   1    -0.174128338690E+03   -0.59492E-02   -0.94654E-01   816   0.339E+00    0.334E-01
DAV:   2    -0.174148918742E+03   -0.20580E-01   -0.13332E-01  1600   0.308E+00    0.177E+00
DAV:   3    -0.174129546341E+03    0.19372E-01   -0.81804E-02  1600   0.260E+00    0.213E-01
DAV:   4    -0.174129685640E+03   -0.13930E-03   -0.76952E-03  1360   0.679E-01    0.200E-01
DAV:   5    -0.174129398538E+03    0.28710E-03   -0.35665E-03  1600   0.482E-01    0.184E-01
DAV:   6    -0.174129290976E+03    0.10756E-03   -0.33204E-03  1608   0.448E-01    0.168E-01
DAV:   7    -0.174129227411E+03    0.63565E-04   -0.15521E-03  1584   0.316E-01    0.123E-01
DAV:   8    -0.174129093796E+03    0.13362E-03   -0.83395E-04  1600   0.197E-01    0.223E-02
DAV:   9    -0.174129099060E+03   -0.52645E-05   -0.10662E-04  1248   0.748E-02    0.273E-02
DAV:  10    -0.174129089827E+03    0.92335E-05   -0.49739E-05   968   0.546E-02
  50 F= -.17412909E+03 E0= -.17407277E+03  d E =-.670213E-02
       N       E                     dE             d eps       ncg     rms          rms(c)
DAV:   1    -0.174134383129E+03   -0.52841E-02   -0.85148E+00   816   0.101E+01    0.101E+00
DAV:   2    -0.174327766858E+03   -0.19338E+00   -0.12436E+00  1584   0.936E+00    0.542E+00
DAV:   3    -0.174143644781E+03    0.18412E+00   -0.78857E-01  1616   0.822E+00    0.606E-01
DAV:   4    -0.174145846342E+03   -0.22016E-02   -0.74281E-02  1344   0.204E+00    0.603E-01
DAV:   5    -0.174142708580E+03    0.31378E-02   -0.32035E-02  1560   0.145E+00    0.478E-01
DAV:   6    -0.174142315367E+03    0.39321E-03   -0.27890E-02  1616   0.128E+00    0.500E-01
DAV:   7    -0.174141476625E+03    0.83874E-03   -0.12061E-02  1584   0.906E-01    0.347E-01
DAV:   8    -0.174140505818E+03    0.97081E-03   -0.60713E-03  1616   0.551E-01    0.695E-02
DAV:   9    -0.174140531355E+03   -0.25537E-04   -0.78468E-04  1360   0.212E-01    0.724E-02
DAV:  10    -0.174140478490E+03    0.52865E-04   -0.37929E-04  1224   0.139E-01    0.239E-02
DAV:  11    -0.174140476297E+03    0.21935E-05   -0.30399E-05   752   0.468E-02
  51 F= -.17414048E+03 E0= -.17408272E+03  d E =-.180886E-01
       N       E                     dE             d eps       ncg     rms          rms(c)
DAV:   1    -0.174140470945E+03    0.75452E-05   -0.10629E+00   816   0.359E+00    0.360E-01
DAV:   2    -0.174164745336E+03   -0.24274E-01   -0.15977E-01  1600   0.333E+00    0.191E+00
DAV:   3    -0.174141806292E+03    0.22939E-01   -0.98394E-02  1600   0.284E+00    0.234E-01
DAV:   4    -0.174141925921E+03   -0.11963E-03   -0.87649E-03  1376   0.725E-01    0.202E-01
DAV:   5    -0.174141561435E+03    0.36449E-03   -0.34984E-03  1552   0.474E-01    0.153E-01
DAV:   6    -0.174141522574E+03    0.38861E-04   -0.36563E-03  1616   0.444E-01    0.165E-01
DAV:   7    -0.174141441937E+03    0.80636E-04   -0.14989E-03  1584   0.320E-01    0.135E-01
DAV:   8    -0.174141306532E+03    0.13541E-03   -0.73663E-04  1608   0.201E-01    0.246E-02
DAV:   9    -0.174141311892E+03   -0.53608E-05   -0.12050E-04  1248   0.802E-02    0.289E-02
DAV:  10    -0.174141302319E+03    0.95733E-05   -0.57257E-05  1016   0.564E-02
  52 F= -.17414130E+03 E0= -.17408280E+03  d E =-.189146E-01
       N       E                     dE             d eps       ncg     rms          rms(c)
DAV:   1    -0.174150430212E+03   -0.91183E-02   -0.88434E-01   824   0.391E+00    0.889E-01
DAV:   2    -0.174296312141E+03   -0.14588E+00   -0.90636E-01  1616   0.806E+00    0.497E+00
DAV:   3    -0.174146626246E+03    0.14969E+00   -0.67775E-01  1616   0.697E+00    0.361E-01
DAV:   4    -0.174148937515E+03   -0.23113E-02   -0.47639E-02  1328   0.145E+00    0.378E-01
DAV:   5    -0.174147966532E+03    0.97098E-03   -0.11889E-02  1368   0.901E-01    0.274E-01
DAV:   6    -0.174147747219E+03    0.21931E-03   -0.63311E-03  1592   0.599E-01    0.261E-01
DAV:   7    -0.174147534707E+03    0.21251E-03   -0.27111E-03  1584   0.427E-01    0.187E-01
DAV:   8    -0.174147280453E+03    0.25425E-03   -0.14359E-03  1584   0.322E-01    0.374E-02
DAV:   9    -0.174147314010E+03   -0.33557E-04   -0.48211E-04  1360   0.156E-01    0.627E-02
DAV:  10    -0.174147266476E+03    0.47534E-04   -0.26454E-04  1360   0.121E-01    0.121E-02
DAV:  11    -0.174147266408E+03    0.67717E-07   -0.19607E-05   536   0.355E-02
  53 F= -.17414727E+03 E0= -.17408798E+03  d E =-.596409E-02
       N       E                     dE             d eps       ncg     rms          rms(c)
DAV:   1    -0.174153517106E+03   -0.62506E-02   -0.10608E+00   832   0.429E+00    0.979E-01
DAV:   2    -0.174330456747E+03   -0.17694E+00   -0.11060E+00  1616   0.891E+00    0.546E+00
DAV:   3    -0.174148888100E+03    0.18157E+00   -0.82489E-01  1616   0.771E+00    0.402E-01
DAV:   4    -0.174151660200E+03   -0.27721E-02   -0.58109E-02  1328   0.160E+00    0.408E-01
DAV:   5    -0.174150527426E+03    0.11328E-02   -0.14100E-02  1360   0.976E-01    0.296E-01
DAV:   6    -0.174150272090E+03    0.25534E-03   -0.76463E-03  1592   0.646E-01    0.281E-01
DAV:   7    -0.174150019217E+03    0.25287E-03   -0.32819E-03  1584   0.461E-01    0.204E-01
DAV:   8    -0.174149723055E+03    0.29616E-03   -0.16733E-03  1584   0.352E-01    0.421E-02
DAV:   9    -0.174149761975E+03   -0.38920E-04   -0.56103E-04  1376   0.171E-01    0.679E-02
DAV:  10    -0.174149705725E+03    0.56250E-04   -0.31441E-04  1396   0.132E-01    0.128E-02
DAV:  11    -0.174149705981E+03   -0.25554E-06   -0.24724E-05   600   0.390E-02
  54 F= -.17414971E+03 E0= -.17408983E+03  d E =-.840366E-02
       N       E                     dE             d eps       ncg     rms          rms(c)
DAV:   1    -0.174154245268E+03   -0.45395E-02   -0.28734E-01   816   0.218E+00    0.480E-01
DAV:   2    -0.174198423860E+03   -0.44179E-01   -0.26924E-01  1616   0.439E+00    0.269E+00
DAV:   3    -0.174153220354E+03    0.45204E-01   -0.19456E-01  1616   0.366E+00    0.228E-01
DAV:   4    -0.174153770494E+03   -0.55014E-03   -0.13825E-02  1304   0.792E-01    0.211E-01
DAV:   5    -0.174153764103E+03    0.63910E-05   -0.44261E-03  1544   0.604E-01    0.263E-01
DAV:   6    -0.174153341772E+03    0.42233E-03   -0.25029E-03  1552   0.459E-01    0.986E-02
DAV:   7    -0.174153314795E+03    0.26977E-04   -0.65727E-04  1616   0.196E-01    0.716E-02
DAV:   8    -0.174153266614E+03    0.48181E-04   -0.37354E-04  1576   0.142E-01    0.225E-02
DAV:   9    -0.174153269347E+03   -0.27329E-05   -0.96475E-05  1208   0.692E-02
  55 F= -.17415327E+03 E0= -.17409313E+03  d E =-.356337E-02
       N       E                     dE             d eps       ncg     rms          rms(c)
DAV:   1    -0.174162159637E+03   -0.88930E-02   -0.15922E+00   816   0.515E+00    0.112E+00
DAV:   2    -0.174405544856E+03   -0.24339E+00   -0.14942E+00  1616   0.103E+01    0.627E+00
DAV:   3    -0.174156739959E+03    0.24880E+00   -0.10264E+00  1632   0.840E+00    0.554E-01
DAV:   4    -0.174160029562E+03   -0.32896E-02   -0.76035E-02  1360   0.189E+00    0.567E-01
DAV:   5    -0.174160167217E+03   -0.13766E-03   -0.26629E-02  1480   0.154E+00    0.650E-01
DAV:   6    -0.174157306781E+03    0.28604E-02   -0.16827E-02  1520   0.114E+00    0.208E-01
DAV:   7    -0.174157160487E+03    0.14629E-03   -0.32024E-03  1536   0.408E-01    0.137E-01
DAV:   8    -0.174156982619E+03    0.17787E-03   -0.16989E-03  1520   0.298E-01    0.584E-02
DAV:   9    -0.174156986732E+03   -0.41122E-05   -0.47421E-04  1440   0.153E-01    0.626E-02
DAV:  10    -0.174156943996E+03    0.42736E-04   -0.25481E-04  1268   0.109E-01    0.133E-02
DAV:  11    -0.174156946584E+03   -0.25886E-05   -0.30990E-05   744   0.452E-02
  56 F= -.17415695E+03 E0= -.17409686E+03  d E =-.724060E-02
       N       E                     dE             d eps       ncg     rms          rms(c)
DAV:   1    -0.174159683519E+03   -0.27395E-02   -0.23917E-01   816   0.162E+00    0.157E-01
DAV:   2    -0.174162926446E+03   -0.32429E-02   -0.29404E-02  1592   0.123E+00    0.620E-01
DAV:   3    -0.174160062931E+03    0.28635E-02   -0.16653E-02  1600   0.105E+00    0.159E-01
DAV:   4    -0.174159964008E+03    0.98924E-04   -0.17457E-03  1488   0.382E-01    0.936E-02
DAV:   5    -0.174159908631E+03    0.55377E-04   -0.93260E-04  1536   0.228E-01    0.825E-02
DAV:   6    -0.174159839253E+03    0.69379E-04   -0.69254E-04  1296   0.172E-01    0.259E-02
DAV:   7    -0.174159838377E+03    0.87519E-06   -0.10151E-04  1152   0.762E-02    0.231E-02
DAV:   8    -0.174159831093E+03    0.72841E-05   -0.29913E-05   784   0.495E-02
  57 F= -.17415983E+03 E0= -.17410012E+03  d E =-.288451E-02
       N       E                     dE             d eps       ncg     rms          rms(c)
DAV:   1    -0.174165916728E+03   -0.60784E-02   -0.21534E+00   816   0.486E+00    0.466E-01
DAV:   2    -0.174193356925E+03   -0.27440E-01   -0.25266E-01  1568   0.360E+00    0.181E+00
DAV:   3    -0.174169313173E+03    0.24044E-01   -0.14372E-01  1600   0.310E+00    0.473E-01
DAV:   4    -0.174168492227E+03    0.82095E-03   -0.15781E-02  1488   0.115E+00    0.286E-01
DAV:   5    -0.174167852072E+03    0.64016E-03   -0.82471E-03  1496   0.681E-01    0.226E-01
DAV:   6    -0.174167339049E+03    0.51302E-03   -0.56330E-03  1288   0.494E-01    0.885E-02
DAV:   7    -0.174167410999E+03   -0.71949E-04   -0.13733E-03  1632   0.301E-01    0.147E-01
DAV:   8    -0.174167263177E+03    0.14782E-03   -0.76654E-04  1624   0.235E-01    0.323E-02
DAV:   9    -0.174167266811E+03   -0.36341E-05   -0.14097E-04  1344   0.920E-02    0.330E-02
DAV:  10    -0.174167255476E+03    0.11335E-04   -0.46650E-05   880   0.617E-02    0.103E-02
DAV:  11    -0.174167255617E+03   -0.14127E-06   -0.14588E-05   476   0.296E-02
  58 F= -.17416726E+03 E0= -.17410913E+03  d E =-.103090E-01
       N       E                     dE             d eps       ncg     rms          rms(c)
DAV:   1    -0.174167763608E+03   -0.50813E-03   -0.85989E+00   816   0.977E+00    0.935E-01
DAV:   2    -0.174283146881E+03   -0.11538E+00   -0.10028E+00  1584   0.734E+00    0.379E+00
DAV:   3    -0.174181670260E+03    0.10148E+00   -0.59057E-01  1600   0.645E+00    0.912E-01
DAV:   4    -0.174178991829E+03    0.26784E-02   -0.66108E-02  1456   0.230E+00    0.561E-01
DAV:   5    -0.174176523240E+03    0.24686E-02   -0.33542E-02  1520   0.137E+00    0.514E-01
DAV:   6    -0.174174650531E+03    0.18727E-02   -0.22486E-02  1632   0.112E+00    0.312E-01
DAV:   7    -0.174175253365E+03   -0.60283E-03   -0.11817E-02  1616   0.891E-01    0.419E-01
DAV:   8    -0.174173920815E+03    0.13326E-02   -0.71574E-03  1616   0.643E-01    0.508E-02
DAV:   9    -0.174173970744E+03   -0.49930E-04   -0.75697E-04  1328   0.188E-01    0.735E-02
DAV:  10    -0.174173917466E+03    0.53279E-04   -0.34430E-04  1400   0.139E-01    0.203E-02
DAV:  11    -0.174173918409E+03   -0.94312E-06   -0.41780E-05   888   0.518E-02
  59 F= -.17417392E+03 E0= -.17411921E+03  d E =-.169718E-01
       N       E                     dE             d eps       ncg     rms          rms(c)
DAV:   1    -0.174179719469E+03   -0.58020E-02   -0.75565E-01   824   0.357E+00    0.892E-01
DAV:   2    -0.174364169224E+03   -0.18445E+00   -0.10677E+00  1600   0.886E+00    0.559E+00
DAV:   3    -0.174175670547E+03    0.18850E+00   -0.80090E-01  1600   0.773E+00    0.390E-01
DAV:   4    -0.174178094670E+03   -0.24241E-02   -0.48362E-02  1352   0.151E+00    0.318E-01
DAV:   5    -0.174178039151E+03    0.55519E-04   -0.90265E-03  1536   0.816E-01    0.310E-01
DAV:   6    -0.174177563989E+03    0.47516E-03   -0.57852E-03  1520   0.612E-01    0.224E-01
DAV:   7    -0.174177412796E+03    0.15119E-03   -0.25177E-03  1560   0.393E-01    0.145E-01
DAV:   8    -0.174177223703E+03    0.18909E-03   -0.14438E-03  1616   0.277E-01    0.436E-02
DAV:   9    -0.174177229299E+03   -0.55966E-05   -0.23738E-04  1512   0.118E-01    0.426E-02
DAV:  10    -0.174177208330E+03    0.20969E-04   -0.12985E-04  1224   0.795E-02    0.580E-03
DAV:  11    -0.174177208145E+03    0.18461E-06   -0.81696E-06   480   0.237E-02
  60 F= -.17417721E+03 E0= -.17412356E+03  d E =-.328974E-02
       N       E                     dE             d eps       ncg     rms          rms(c)
DAV:   1    -0.174177790768E+03   -0.58244E-03   -0.89555E-02   824   0.123E+00    0.309E-01
DAV:   2    -0.174200239106E+03   -0.22448E-01   -0.12726E-01  1600   0.307E+00    0.196E+00
DAV:   3    -0.174177365068E+03    0.22874E-01   -0.96189E-02  1600   0.264E+00    0.137E-01
DAV:   4    -0.174177599116E+03   -0.23405E-03   -0.52933E-03  1344   0.518E-01    0.109E-01
DAV:   5    -0.174177609290E+03   -0.10174E-04   -0.10607E-03  1512   0.286E-01    0.112E-01
DAV:   6    -0.174177534735E+03    0.74554E-04   -0.69470E-04  1512   0.219E-01    0.667E-02
DAV:   7    -0.174177525594E+03    0.91419E-05   -0.29013E-04  1544   0.129E-01    0.473E-02
DAV:   8    -0.174177503996E+03    0.21597E-04   -0.16514E-04  1488   0.911E-02    0.143E-02
DAV:   9    -0.174177503819E+03    0.17784E-06   -0.14080E-05   480   0.401E-02
  61 F= -.17417750E+03 E0= -.17412415E+03  d E =-.358541E-02
       N       E                     dE             d eps       ncg     rms          rms(c)
DAV:   1    -0.174185048613E+03   -0.75446E-02   -0.83591E-01   880   0.447E+00    0.111E+00
DAV:   2    -0.174417388343E+03   -0.23234E+00   -0.14488E+00  1624   0.100E+01    0.618E+00
DAV:   3    -0.174179662196E+03    0.23773E+00   -0.10738E+00  1624   0.824E+00    0.677E-01
DAV:   4    -0.174180838940E+03   -0.11767E-02   -0.67683E-02  1412   0.192E+00    0.521E-01
DAV:   5    -0.174181725025E+03   -0.88608E-03   -0.25886E-02  1408   0.153E+00    0.560E-01
DAV:   6    -0.174179109175E+03    0.26158E-02   -0.15043E-02  1436   0.998E-01    0.153E-01
DAV:   7    -0.174179062094E+03    0.47081E-04   -0.18994E-03  1408   0.288E-01    0.100E-01
DAV:   8    -0.174178975159E+03    0.86935E-04   -0.10345E-03  1400   0.222E-01    0.542E-02
DAV:   9    -0.174178961102E+03    0.14057E-04   -0.25456E-04  1480   0.118E-01    0.373E-02
DAV:  10    -0.174178945613E+03    0.15490E-04   -0.12348E-04  1224   0.762E-02    0.118E-02
DAV:  11    -0.174178945956E+03   -0.34273E-06   -0.10303E-05   480   0.323E-02
  62 F= -.17417895E+03 E0= -.17412601E+03  d E =-.144214E-02
       N       E                     dE             d eps       ncg     rms          rms(c)
DAV:   1    -0.174179690194E+03   -0.74458E-03   -0.69816E-02   848   0.128E+00    0.324E-01
DAV:   2    -0.174199447243E+03   -0.19757E-01   -0.11211E-01  1632   0.292E+00    0.183E+00
DAV:   3    -0.174179190094E+03    0.20257E-01   -0.86575E-02  1632   0.251E+00    0.164E-01
DAV:   4    -0.174179372081E+03   -0.18199E-03   -0.60317E-03  1356   0.543E-01    0.141E-01
DAV:   5    -0.174179438661E+03   -0.66580E-04   -0.18834E-03  1488   0.418E-01    0.178E-01
DAV:   6    -0.174179223018E+03    0.21564E-03   -0.11378E-03  1500   0.297E-01    0.525E-02
DAV:   7    -0.174179219827E+03    0.31914E-05   -0.19356E-04  1480   0.990E-02    0.370E-02
DAV:   8    -0.174179207783E+03    0.12044E-04   -0.10988E-04  1248   0.754E-02    0.150E-02
DAV:   9    -0.174179207757E+03    0.25372E-07   -0.13840E-05   496   0.372E-02
  63 F= -.17417921E+03 E0= -.17412618E+03  d E =-.170394E-02
       N       E                     dE             d eps       ncg     rms          rms(c)
DAV:   1    -0.174179213686E+03   -0.59029E-05   -0.55658E-04   900   0.115E-01    0.304E-02
DAV:   2    -0.174179398924E+03   -0.18524E-03   -0.10545E-03  1624   0.276E-01    0.178E-01
DAV:   3    -0.174179207001E+03    0.19192E-03   -0.80980E-04  1632   0.240E-01    0.155E-02
DAV:   4    -0.174179207398E+03   -0.39715E-06   -0.42411E-05   968   0.498E-02
  64 F= -.17417921E+03 E0= -.17412618E+03  d E =-.170358E-02
       N       E                     dE             d eps       ncg     rms          rms(c)
DAV:   1    -0.174180242190E+03   -0.10352E-02   -0.91824E-02   816   0.126E+00    0.294E-01
DAV:   2    -0.174197443349E+03   -0.17201E-01   -0.10117E-01  1632   0.271E+00    0.171E+00
DAV:   3    -0.174179829203E+03    0.17614E-01   -0.75539E-02  1632   0.233E+00    0.142E-01
DAV:   4    -0.174180055731E+03   -0.22653E-03   -0.51285E-03  1420   0.542E-01    0.156E-01
DAV:   5    -0.174180030627E+03    0.25104E-04   -0.18571E-03  1528   0.389E-01    0.155E-01
DAV:   6    -0.174179882892E+03    0.14774E-03   -0.12581E-03  1544   0.276E-01    0.704E-02
DAV:   7    -0.174179867581E+03    0.15311E-04   -0.32824E-04  1584   0.134E-01    0.449E-02
DAV:   8    -0.174179847121E+03    0.20460E-04   -0.14986E-04  1392   0.879E-02    0.116E-02
DAV:   9    -0.174179846589E+03    0.53240E-06   -0.10383E-05   464   0.341E-02
  65 F= -.17417985E+03 E0= -.17412711E+03  d E =-.639191E-03
       N       E                     dE             d eps       ncg     rms          rms(c)
DAV:   1    -0.174180134671E+03   -0.28755E-03   -0.38757E-02   816   0.822E-01    0.194E-01
DAV:   2    -0.174187745502E+03   -0.76108E-02   -0.43520E-02  1616   0.180E+00    0.114E+00
DAV:   3    -0.174179962883E+03    0.77826E-02   -0.32412E-02  1616   0.154E+00    0.945E-02
DAV:   4    -0.174180056334E+03   -0.93451E-04   -0.22035E-03  1404   0.355E-01    0.987E-02
DAV:   5    -0.174180052357E+03    0.39769E-05   -0.75879E-04  1520   0.248E-01    0.101E-01
DAV:   6    -0.174179989217E+03    0.63140E-04   -0.51671E-04  1528   0.179E-01    0.450E-02
DAV:   7    -0.174179983229E+03    0.59883E-05   -0.13580E-04  1392   0.866E-02    0.290E-02
DAV:   8    -0.174179973479E+03    0.97499E-05   -0.51473E-05   924   0.581E-02
  66 F= -.17417997E+03 E0= -.17412739E+03  d E =-.766081E-03
       N       E                     dE             d eps       ncg     rms          rms(c)
DAV:   1    -0.174180713840E+03   -0.73061E-03   -0.53578E-02   888   0.110E+00    0.302E-01
DAV:   2    -0.174199999776E+03   -0.19286E-01   -0.10834E-01  1632   0.280E+00    0.182E+00
DAV:   3    -0.174180135533E+03    0.19864E-01   -0.83926E-02  1632   0.241E+00    0.148E-01
DAV:   4    -0.174180364472E+03   -0.22894E-03   -0.50539E-03  1308   0.543E-01    0.166E-01
DAV:   5    -0.174180338091E+03    0.26382E-04   -0.18367E-03  1312   0.400E-01    0.122E-01
DAV:   6    -0.174180199457E+03    0.13863E-03   -0.90161E-04  1444   0.253E-01    0.512E-02
DAV:   7    -0.174180189169E+03    0.10288E-04   -0.14565E-04  1316   0.899E-02    0.305E-02
DAV:   8    -0.174180179677E+03    0.94923E-05   -0.71382E-05  1064   0.614E-02
  67 F= -.17418018E+03 E0= -.17412771E+03  d E =-.206198E-03
       N       E                     dE             d eps       ncg     rms          rms(c)
DAV:   1    -0.174180177709E+03    0.11460E-04   -0.14571E-05   500   0.304E-02    0.770E-03
DAV:   2    -0.174180182573E+03   -0.48638E-05   -0.51649E-05  1024   0.506E-02
  68 F= -.17418018E+03 E0= -.17412772E+03  d E =-.209094E-03
       N       E                     dE             d eps       ncg     rms          rms(c)
DAV:   1    -0.174180454019E+03   -0.27631E-03   -0.31561E-02   824   0.769E-01    0.169E-01
DAV:   2    -0.174185577672E+03   -0.51237E-02   -0.31237E-02  1632   0.156E+00    0.909E-01
DAV:   3    -0.174180408510E+03    0.51692E-02   -0.22828E-02  1632   0.131E+00    0.117E-01
DAV:   4    -0.174180384641E+03    0.23869E-04   -0.17273E-03  1396   0.307E-01    0.583E-02
DAV:   5    -0.174180427220E+03   -0.42580E-04   -0.51394E-04  1584   0.204E-01    0.101E-01
DAV:   6    -0.174180360453E+03    0.66767E-04   -0.37645E-04  1580   0.163E-01    0.281E-02
DAV:   7    -0.174180363553E+03   -0.30996E-05   -0.93672E-05  1208   0.722E-02
  69 F= -.17418036E+03 E0= -.17412811E+03  d E =-.180980E-03
       N       E                     dE             d eps       ncg     rms          rms(c)
DAV:   1    -0.174180392951E+03   -0.32498E-04   -0.90037E-03   848   0.412E-01    0.874E-02
DAV:   2    -0.174181664880E+03   -0.12719E-02   -0.79369E-03  1632   0.770E-01    0.451E-01
DAV:   3    -0.174180380886E+03    0.12840E-02   -0.57534E-03  1632   0.655E-01    0.606E-02
DAV:   4    -0.174180376271E+03    0.46153E-05   -0.45846E-04  1416   0.158E-01    0.337E-02
DAV:   5    -0.174180388124E+03   -0.11853E-04   -0.15075E-04  1544   0.114E-01    0.568E-02
DAV:   6    -0.174180367649E+03    0.20475E-04   -0.11135E-04  1488   0.931E-02    0.154E-02
DAV:   7    -0.174180367047E+03    0.60251E-06   -0.11586E-05   468   0.368E-02
  70 F= -.17418037E+03 E0= -.17412821E+03  d E =-.184474E-03
       N       E                     dE             d eps       ncg     rms          rms(c)
DAV:   1    -0.174180500557E+03   -0.13291E-03   -0.45991E-02   816   0.822E-01    0.153E-01
DAV:   2    -0.174186036240E+03   -0.55357E-02   -0.31341E-02  1616   0.151E+00    0.968E-01
DAV:   3    -0.174180441028E+03    0.55952E-02   -0.22920E-02  1616   0.128E+00    0.775E-02
DAV:   4    -0.174180480379E+03   -0.39351E-04   -0.11556E-03  1240   0.256E-01    0.601E-02
DAV:   5    -0.174180483880E+03   -0.35011E-05   -0.32343E-04  1296   0.163E-01    0.544E-02
DAV:   6    -0.174180458662E+03    0.25218E-04   -0.18971E-04  1368   0.121E-01    0.270E-02
DAV:   7    -0.174180458014E+03    0.64876E-06   -0.89392E-05  1156   0.682E-02
  71 F= -.17418046E+03 E0= -.17412851E+03  d E =-.909671E-04
       N       E                     dE             d eps       ncg     rms          rms(c)
DAV:   1    -0.174180460447E+03   -0.17843E-05   -0.80236E-03   816   0.345E-01    0.620E-02
DAV:   2    -0.174181320871E+03   -0.86042E-03   -0.49315E-03  1616   0.588E-01    0.382E-01
DAV:   3    -0.174180449029E+03    0.87184E-03   -0.35743E-03  1616   0.507E-01    0.323E-02
DAV:   4    -0.174180455694E+03   -0.66654E-05   -0.19065E-04  1236   0.104E-01    0.276E-02
DAV:   5    -0.174180454291E+03    0.14035E-05   -0.51008E-05   992   0.732E-02
  72 F= -.17418045E+03 E0= -.17412863E+03  d E =-.872442E-04
       N       E                     dE             d eps       ncg     rms          rms(c)
DAV:   1    -0.174180534908E+03   -0.79214E-04   -0.15888E-02   816   0.436E-01    0.529E-02
DAV:   2    -0.174180816875E+03   -0.28197E-03   -0.27447E-03  1352   0.365E-01    0.165E-01
DAV:   3    -0.174180543507E+03    0.27337E-03   -0.15971E-03  1576   0.308E-01    0.421E-02
DAV:   4    -0.174180547249E+03   -0.37424E-05   -0.17143E-04  1472   0.112E-01    0.428E-02
DAV:   5    -0.174180537253E+03    0.99965E-05   -0.10343E-04  1320   0.889E-02    0.320E-02
DAV:   6    -0.174180531024E+03    0.62291E-05   -0.76813E-05  1272   0.749E-02
  73 F= -.17418053E+03 E0= -.17412883E+03  d E =-.767330E-04
