 vasp.5.4.4.18Apr17-6-g9f103f2a35 (build Jul 11 2019 11:52:51) complex          
  
 executed on             LinuxIFC date 2023.11.29  17:04:20
 running on    4 total cores
 distrk:  each k-point on    4 cores,    1 groups
 distr:  one band on NCORES_PER_BAND=   1 cores,    4 groups


--------------------------------------------------------------------------------------------------------


 INCAR:
 POTCAR:    PAW_PBE V 08Apr2002                   
 POTCAR:    PAW_PBE Fe 06Sep2000                  
 POTCAR:    PAW_PBE V 08Apr2002                   
   VRHFIN =V: p6 d4 s1                                                          
   LEXCH  = PE                                                                  
   EATOM  =   170.8679 eV,   12.5584 Ry                                         
                                                                                
   TITEL  = PAW_PBE V 08Apr2002                                                 
   LULTRA =        F    use ultrasoft PP ?                                      
   IUNSCR =        1    unscreen: 0-lin 1-nonlin 2-no                           
   RPACOR =    2.000    partial core radius                                     
   POMASS =   50.941; ZVAL   =    5.000    mass and valenz                      
   RCORE  =    2.700    outmost cutoff radius                                   
   RWIGS  =    2.500; RWIGS  =    1.323    wigner-seitz radius (au A)           
   ENMAX  =  192.543; ENMIN  =  144.408 eV                                      
   RCLOC  =    1.779    cutoff for local pot                                    
   LCOR   =        T    correct aug charges                                     
   LPAW   =        T    paw PP                                                  
   EAUG   =  358.662                                                            
   DEXC   =    0.000                                                            
   RMAX   =    2.768    core radius for proj-oper                               
   RAUG   =    1.300    factor for augmentation sphere                          
   RDEP   =    2.762    radius for radial grids                                 
   RDEPT  =    2.240    core radius for aug-charge                              
                                                                                
   Atomic configuration                                                         
    9 entries                                                                   
     n  l   j            E        occ.                                          
     1  0  0.50     -5360.7193   2.0000                                         
     2  0  0.50      -598.4546   2.0000                                         
     2  1  1.50      -499.0155   6.0000                                         
     3  0  0.50       -66.5711   2.0000                                         
     3  1  1.50       -40.5282   6.0000                                         
     3  2  2.50        -2.4291   4.0000                                         
     4  0  0.50        -3.8743   1.0000                                         
     4  1  0.50        -2.7212   0.0000                                         
     4  3  2.50        -1.3606   0.0000                                         
   Description                                                                  
     l       E           TYP  RCUT    TYP  RCUT                                 
     2     -2.4290901     23  2.700                                             
     2     -3.7896727     23  2.700                                             
     0     -3.8742752     23  2.700                                             
     0     27.2116520     23  2.700                                             
     1     -2.7211652     23  2.700                                             
     1     27.2116520     23  2.700                                             
  local pseudopotential read in
  partial core-charges read in
  partial kinetic energy density read in
  atomic valenz-charges read in
  non local Contribution for L=           2  read in
    real space projection operators read in
  non local Contribution for L=           2  read in
    real space projection operators read in
  non local Contribution for L=           0  read in
    real space projection operators read in
  non local Contribution for L=           0  read in
    real space projection operators read in
  non local Contribution for L=           1  read in
    real space projection operators read in
  non local Contribution for L=           1  read in
    real space projection operators read in
    PAW grid and wavefunctions read in
 
   number of l-projection  operators is LMAX  =           6
   number of lm-projection operators is LMMAX =          18
 
 POTCAR:    PAW_PBE Fe 06Sep2000                  
   VRHFIN =Fe:  d7 s1                                                           
   LEXCH  = PE                                                                  
   EATOM  =   594.3153 eV,   43.6809 Ry                                         
                                                                                
   TITEL  = PAW_PBE Fe 06Sep2000                                                
   LULTRA =        F    use ultrasoft PP ?                                      
   IUNSCR =        1    unscreen: 0-lin 1-nonlin 2-no                           
   RPACOR =    2.000    partial core radius                                     
   POMASS =   55.847; ZVAL   =    8.000    mass and valenz                      
   RCORE  =    2.300    outmost cutoff radius                                   
   RWIGS  =    2.460; RWIGS  =    1.302    wigner-seitz radius (au A)           
   ENMAX  =  267.882; ENMIN  =  200.911 eV                                      
   RCLOC  =    1.701    cutoff for local pot                                    
   LCOR   =        T    correct aug charges                                     
   LPAW   =        T    paw PP                                                  
   EAUG   =  511.368                                                            
   DEXC   =    0.000                                                            
   RMAX   =    2.356    core radius for proj-oper                               
   RAUG   =    1.300    factor for augmentation sphere                          
   RDEP   =    2.442    radius for radial grids                                 
   RDEPT  =    1.890    core radius for aug-charge                              
                                                                                
   Atomic configuration                                                         
    9 entries                                                                   
     n  l   j            E        occ.                                          
     1  0  0.50     -6993.8440   2.0000                                         
     2  0  0.50      -814.6047   2.0000                                         
     2  1  1.50      -693.3689   6.0000                                         
     3  0  0.50       -89.4732   2.0000                                         
     3  1  1.50       -55.6373   6.0000                                         
     3  2  2.50        -3.8151   7.0000                                         
     4  0  0.50        -4.2551   1.0000                                         
     4  1  1.50        -3.4015   0.0000                                         
     4  3  2.50        -1.3606   0.0000                                         
   Description                                                                  
     l       E           TYP  RCUT    TYP  RCUT                                 
     2     -3.8151135     23  2.300                                             
     2     -5.1756961     23  2.300                                             
     0     -4.2550963     23  2.300                                             
     0      7.2035603     23  2.300                                             
     1     -2.7211652     23  2.300                                             
     1     18.4316424     23  2.300                                             
  local pseudopotential read in
  partial core-charges read in
  partial kinetic energy density read in
  atomic valenz-charges read in
  non local Contribution for L=           2  read in
    real space projection operators read in
  non local Contribution for L=           2  read in
    real space projection operators read in
  non local Contribution for L=           0  read in
    real space projection operators read in
  non local Contribution for L=           0  read in
    real space projection operators read in
  non local Contribution for L=           1  read in
    real space projection operators read in
  non local Contribution for L=           1  read in
    real space projection operators read in
    PAW grid and wavefunctions read in
 
   number of l-projection  operators is LMAX  =           6
   number of lm-projection operators is LMMAX =          18
 

 ----------------------------------------------------------------------------- 
|                                                                             |
|  ADVICE TO THIS USER RUNNING 'VASP/VAMP'   (HEAR YOUR MASTER'S VOICE ...):  |
|                                                                             |
|      You have a (more or less) 'large supercell' and for larger cells       |
|      it might be more efficient to use real space projection opertators     |
|      So try LREAL= Auto  in the INCAR   file.                               |
|      Mind:          For very  accurate calculation you might also keep the  |
|      reciprocal projection scheme          (i.e. LREAL=.FALSE.)             |
|                                                                             |
 ----------------------------------------------------------------------------- 

  PAW_PBE V 08Apr2002                   :
 energy of atom  1       EATOM= -170.8679
 kinetic energy error for atom=    0.0066 (will be added to EATOM!!)
  PAW_PBE Fe 06Sep2000                  :
 energy of atom  2       EATOM= -594.3153
 kinetic energy error for atom=    0.0346 (will be added to EATOM!!)
 
 
 POSCAR: EA0     6.415  6.615  6.615 72.36 81.53 
  positions in direct lattice
  No initial velocities read in
 exchange correlation table for  LEXCH =        8
   RHO(1)=    0.500       N(1)  =     2000
   RHO(2)=  100.500       N(2)  =     4000
 


--------------------------------------------------------------------------------------------------------


 ion  position               nearest neighbor table
   1  0.588  0.828  0.382-   8 2.16   4 2.24  20 2.45  18 2.62  13 2.65  19 2.87   9 2.94   6 2.97
                            12 3.06  14 3.13  17 3.17
   2  0.412  0.382  0.828-   7 2.16   3 2.24  19 2.45  18 2.62  14 2.65  20 2.87  10 2.94   5 2.97
                            11 3.06  13 3.13  17 3.17
   3  0.412  0.172  0.618-   6 2.16   2 2.24  19 2.45  18 2.62  11 2.65  20 2.87  10 2.94   8 2.97
                            14 3.06  12 3.13  17 3.17
   4  0.588  0.618  0.172-   5 2.16   1 2.24  20 2.45  18 2.62  12 2.65  19 2.87   9 2.94   7 2.97
                            13 3.06  11 3.13  17 3.17
   5  0.818  0.584  0.917-  15 1.95  12 2.12   4 2.16  13 2.27  10 2.74  11 2.84   7 2.95   2 2.97
                             6 3.03  17 3.06  20 3.12
   6  0.182  0.917  0.584-  15 1.95  11 2.12   3 2.16  14 2.27   9 2.74  12 2.84   8 2.95   1 2.97
                             5 3.03  17 3.06  19 3.12
   7  0.182  0.416  0.083-  16 1.95  14 2.12   2 2.16  11 2.27   9 2.74  13 2.84   5 2.95   4 2.97
                             8 3.03  17 3.06  19 3.12
   8  0.818  0.083  0.416-  16 1.95  13 2.12   1 2.16  12 2.27  10 2.74  14 2.84   6 2.95   3 2.97
                             7 3.03  17 3.06  20 3.12
   9  0.170  0.739  0.261-  19 2.19  14 2.33  11 2.33  16 2.40  15 2.40  17 2.54  18 2.54  20 2.65
                             7 2.74   6 2.74   4 2.94   1 2.94
  10  0.830  0.261  0.739-  20 2.19  12 2.33  13 2.33  15 2.40  16 2.40  17 2.54  18 2.54  19 2.65
                             5 2.74   8 2.74   2 2.94   3 2.94
  11  0.252  0.775  0.894-   6 2.12   7 2.27   9 2.33  18 2.35  17 2.51   3 2.65  15 2.78   5 2.84
                             2 3.06  12 3.09   4 3.13
  12  0.748  0.894  0.775-   5 2.12   8 2.27  10 2.33  18 2.35  17 2.51   4 2.65  15 2.78   6 2.84
                             1 3.06  11 3.09   3 3.13
  13  0.748  0.225  0.106-   8 2.12   5 2.27  10 2.33  18 2.35  17 2.51   1 2.65  16 2.78   7 2.84
                             4 3.06  14 3.09   2 3.13
  14  0.252  0.106  0.225-   7 2.12   6 2.27   9 2.33  18 2.35  17 2.51   2 2.65  16 2.78   8 2.84
                             3 3.06  13 3.09   1 3.13
  15  0.000  0.635  0.635-   6 1.95   5 1.95  19 2.08  20 2.08  10 2.40   9 2.40  12 2.78  11 2.78
                            16 2.88
  16  0.000  0.365  0.365-   8 1.95   7 1.95  20 2.08  19 2.08   9 2.40  10 2.40  14 2.78  13 2.78
                            15 2.88
  17  0.000  0.000  0.000-  11 2.51  13 2.51  12 2.51  14 2.51   9 2.54  10 2.54   5 3.06   7 3.06
                             6 3.06   8 3.06   2 3.17   4 3.17   3 3.17   1 3.17
  18  0.500  0.000  0.000-  11 2.35  13 2.35  12 2.35  14 2.35   9 2.54  10 2.54   2 2.62   4 2.62
                             3 2.62   1 2.62
  19  0.223  0.473  0.527-  15 2.08  16 2.08   9 2.19   3 2.45   2 2.45  10 2.65   1 2.87   4 2.87
                            20 3.00   6 3.12   7 3.12
  20  0.777  0.527  0.473-  16 2.08  15 2.08  10 2.19   1 2.45   4 2.45   9 2.65   3 2.87   2 2.87
                            19 3.00   8 3.12   5 3.12
 
  LATTYP: Found a base centered monoclinic cell.
 ALAT       =    29.3876365459
 B/A-ratio  =     0.3633970304
 C/A-ratio  =     0.6229604007
 COS(beta)  =    -0.9360360653
  
  Lattice vectors:
  
 A1 = (   9.3384870000,  -2.1989560000,  12.3441420000)
 A2 = (   9.3384870000, -10.9141550000,   6.1720710000)
 A3 = ( -10.3129420000,   8.7420740000, -12.3441420000)


Analysis of symmetry for initial positions (statically):
=====================================================================
 Subroutine PRICEL returns:
 Original cell was already a primitive cell.
 

 Routine SETGRP: Setting up the symmetry group for a 
 base centered monoclinic supercell.


 Subroutine GETGRP returns: Found  4 space group operations
 (whereof  4 operations were pure point group operations)
 out of a pool of  4 trial point group operations.


The static configuration has the point symmetry C_2h.


Analysis of symmetry for dynamics (positions and initial velocities):
=====================================================================
 Subroutine PRICEL returns:
 Original cell was already a primitive cell.
 

 Routine SETGRP: Setting up the symmetry group for a 
 base centered monoclinic supercell.


 Subroutine GETGRP returns: Found  4 space group operations
 (whereof  4 operations were pure point group operations)
 out of a pool of  4 trial point group operations.


The dynamic configuration has the point symmetry C_2h.


 Subroutine INISYM returns: Found  4 space group operations
 (whereof  4 operations are pure point group operations),
 and found     1 'primitive' translations

 
 
 KPOINTS: EA                                      

Automatic generation of k-mesh.
Space group operators:
 irot       det(A)        alpha          n_x          n_y          n_z        tau_x        tau_y        tau_z
    1     1.000000     0.000000     1.000000     0.000000     0.000000     0.000000     0.000000     0.000000
    2    -1.000000     0.000000     1.000000     0.000000     0.000000     0.000000     0.000000     0.000000
    3     1.000000   180.000000     0.000000    -0.816077    -0.577943     0.000000     0.000000     0.000000
    4    -1.000000   180.000000     0.000000    -0.816077    -0.577943     0.000000     0.000000     0.000000
 
 Subroutine IBZKPT returns following result:
 ===========================================
 
 Found      6 irreducible k-points:
 
 Following reciprocal coordinates:
            Coordinates               Weight
  0.000000  0.000000  0.000000      1.000000
  0.500000  0.000000 -0.000000      1.000000
  0.000000  0.500000 -0.000000      2.000000
  0.500000  0.500000  0.000000      2.000000
  0.000000  0.500000  0.500000      1.000000
  0.500000  0.500000  0.500000      1.000000
 
 Following cartesian coordinates:
            Coordinates               Weight
  0.000000  0.000000  0.000000      1.000000
  0.077941  0.011608 -0.016390      1.000000
  0.000000  0.076416 -0.026892      2.000000
  0.077941  0.088024 -0.043283      2.000000
  0.000000  0.076416  0.054118      1.000000
  0.077941  0.088024  0.037727      1.000000
 


--------------------------------------------------------------------------------------------------------




 Dimension of arrays:
   k-points           NKPTS =      6   k-points in BZ     NKDIM =      6   number of bands    NBANDS=     68
   number of dos      NEDOS =    301   number of ions     NIONS =     20
   non local maximal  LDIM  =      6   non local SUM 2l+1 LMDIM =     18
   total plane-waves  NPLWV =  21952
   max r-space proj   IRMAX =      1   max aug-charges    IRDMAX=   5337
   dimension x,y,z NGX =    28 NGY =   28 NGZ =   28
   dimension x,y,z NGXF=    56 NGYF=   56 NGZF=   56
   support grid    NGXF=    56 NGYF=   56 NGZF=   56
   ions per type =              17   3
   NGX,Y,Z   is equivalent  to a cutoff of   7.26,  7.04,  7.04 a.u.
   NGXF,Y,Z  is equivalent  to a cutoff of  14.51, 14.07, 14.07 a.u.

 SYSTEM =  unknown system                          
 POSCAR =  EA0     6.415  6.615  6.615 72.36 81.53 

 Startparameter for this run:
   NWRITE =      2    write-flag & timer
   PREC   = normal    normal or accurate (medium, high low for compatibility)
   ISTART =      0    job   : 0-new  1-cont  2-samecut
   ICHARG =      2    charge: 1-file 2-atom 10-const
   ISPIN  =      1    spin polarized calculation?
   LNONCOLLINEAR =      F non collinear calculations
   LSORBIT =      F    spin-orbit coupling
   INIWAV =      1    electr: 0-lowe 1-rand  2-diag
   LASPH  =      F    aspherical Exc in radial PAW
   METAGGA=      F    non-selfconsistent MetaGGA calc.

 Electronic Relaxation 1
   ENCUT  =  267.9 eV  19.69 Ry    4.44 a.u.   8.56  8.83  8.83*2*pi/ulx,y,z
   ENINI  =  267.9     initial cutoff
   ENAUG  =  511.4 eV  augmentation charge cutoff
   NELM   =     60;   NELMIN=  2; NELMDL= -5     # of ELM steps 
   EDIFF  = 0.1E-04   stopping-criterion for ELM
   LREAL  =      F    real-space projection
   NLSPLINE    = F    spline interpolate recip. space projectors
   LCOMPAT=      F    compatible to vasp.4.4
   GGA_COMPAT  = T    GGA compatible to vasp.4.4-vasp.4.6
   LMAXPAW     = -100 max onsite density
   LMAXMIX     =    2 max onsite mixed and CHGCAR
   VOSKOWN=      0    Vosko Wilk Nusair interpolation
   ROPT   =    0.00000   0.00000
 Ionic relaxation
   EDIFFG = -.1E-01   stopping-criterion for IOM
   NSW    =    500    number of steps for IOM
   NBLOCK =      1;   KBLOCK =    500    inner block; outer block 
   IBRION =      2    ionic relax: 0-MD 1-quasi-New 2-CG
   NFREE  =      1    steps in history (QN), initial steepest desc. (CG)
   ISIF   =      3    stress and relaxation
   IWAVPR =     11    prediction:  0-non 1-charg 2-wave 3-comb
   ISYM   =      2    0-nonsym 1-usesym 2-fastsym
   LCORR  =      T    Harris-Foulkes like correction to forces

   POTIM  = 0.5000    time-step for ionic-motion
   TEIN   =    0.0    initial temperature
   TEBEG  =    0.0;   TEEND  =   0.0 temperature during run
   SMASS  =  -3.00    Nose mass-parameter (am)
   estimated Nose-frequenzy (Omega)   =  0.10E-29 period in steps =****** mass=  -0.940E-27a.u.
   SCALEE = 1.0000    scale energy and forces
   NPACO  =    256;   APACO  = 16.0  distance and # of slots for P.C.
   PSTRESS=    0.0 pullay stress

  Mass of Ions in am
   POMASS =  50.94 55.85
  Ionic Valenz
   ZVAL   =   5.00  8.00
  Atomic Wigner-Seitz radii
   RWIGS  =  -1.00 -1.00
  virtual crystal weights 
   VCA    =   1.00  1.00
   NELECT =     109.0000    total number of electrons
   NUPDOWN=      -1.0000    fix difference up-down

 DOS related values:
   EMIN   =  10.00;   EMAX   =-10.00  energy-range for DOS
   EFERMI =   0.00
   ISMEAR =     0;   SIGMA  =   0.10  broadening in eV -4-tet -1-fermi 0-gaus

 Electronic relaxation 2 (details)
   IALGO  =     38    algorithm
   LDIAG  =      T    sub-space diagonalisation (order eigenvalues)
   LSUBROT=      F    optimize rotation matrix (better conditioning)
   TURBO    =      0    0=normal 1=particle mesh
   IRESTART =      0    0=no restart 2=restart with 2 vectors
   NREBOOT  =      0    no. of reboots
   NMIN     =      0    reboot dimension
   EREF     =   0.00    reference energy to select bands
   IMIX   =      4    mixing-type and parameters
     AMIX     =   0.40;   BMIX     =  1.00
     AMIX_MAG =   1.60;   BMIX_MAG =  1.00
     AMIN     =   0.10
     WC   =   100.;   INIMIX=   1;  MIXPRE=   1;  MAXMIX= -45

 Intra band minimization:
   WEIMIN = 0.0010     energy-eigenvalue tresh-hold
   EBREAK =  0.37E-07  absolut break condition
   DEPER  =   0.30     relativ break condition  

   TIME   =   0.40     timestep for ELM

  volume/ion in A,a.u.               =      12.95        87.42
  Fermi-wavevector in a.u.,A,eV,Ry     =   1.226714  2.318154 20.474431  1.504828
  Thomas-Fermi vector in A             =   2.361705
 
 Write flags
   LWAVE        =      F    write WAVECAR
   LDOWNSAMPLE  =      F    k-point downsampling of WAVECAR
   LCHARG       =      F    write CHGCAR
   LVTOT        =      F    write LOCPOT, total local potential
   LVHAR        =      F    write LOCPOT, Hartree potential only
   LELF         =      F    write electronic localiz. function (ELF)
   LORBIT       =      0    0 simple, 1 ext, 2 COOP (PROOUT), +10 PAW based schemes


 Dipole corrections
   LMONO  =      F    monopole corrections only (constant potential shift)
   LDIPOL =      F    correct potential (dipole corrections)
   IDIPOL =      0    1-x, 2-y, 3-z, 4-all directions 
   EPSILON=  1.0000000 bulk dielectric constant

 Exchange correlation treatment:
   GGA     =    --    GGA type
   LEXCH   =     8    internal setting for exchange type
   VOSKOWN=      0    Vosko Wilk Nusair interpolation
   LHFCALC =     F    Hartree Fock is set to
   LHFONE  =     F    Hartree Fock one center treatment
   AEXX    =    0.0000 exact exchange contribution

 Linear response parameters
   LEPSILON=     F    determine dielectric tensor
   LRPA    =     F    only Hartree local field effects (RPA)
   LNABLA  =     F    use nabla operator in PAW spheres
   LVEL    =     F    velocity operator in full k-point grid
   LINTERFAST=   F  fast interpolation
   KINTER  =     0    interpolate to denser k-point grid
   CSHIFT  =0.1000    complex shift for real part using Kramers Kronig
   OMEGAMAX=  -1.0    maximum frequency
   DEG_THRESHOLD= 0.2000000E-02 threshold for treating states as degnerate
   RTIME   =   -0.100 relaxation time in fs
  (WPLASMAI=    0.000 imaginary part of plasma frequency in eV, 0.658/RTIME)
   DFIELD  = 0.0000000 0.0000000 0.0000000 field for delta impulse in time
 
 Orbital magnetization related:
   ORBITALMAG=     F  switch on orbital magnetization
   LCHIMAG   =     F  perturbation theory with respect to B field
   DQ        =  0.001000  dq finite difference perturbation B field
   LLRAUG    =     F  two centre corrections for induced B field



--------------------------------------------------------------------------------------------------------


 conjugate gradient relaxation of ions
 charge density and potential will be updated during run
 non-spin polarized calculation
 Variant of blocked Davidson
 Davidson routine will perform the subspace rotation
 perform sub-space diagonalisation
    after iterative eigenvector-optimisation
 modified Broyden-mixing scheme, WC =      100.0
 initial mixing is a Kerker type mixing with AMIX =  0.4000 and BMIX =      1.0000
 Hartree-type preconditioning will be used
 using additional bands           13
 reciprocal scheme for non local part
 use partial core corrections
 calculate Harris-corrections to forces 
   (improved forces if not selfconsistent)
 use gradient corrections 
 use of overlap-Matrix (Vanderbilt PP)
 Gauss-broadening in eV      SIGMA  =   0.10


--------------------------------------------------------------------------------------------------------


  energy-cutoff  :      267.88
  volume of cell :      259.07
      direct lattice vectors                 reciprocal lattice vectors
     6.415122000  0.000000000  0.000000000     0.155881681  0.023215183 -0.032780722
    -0.974455000  6.543118000  0.000000000     0.000000000  0.152832335 -0.053784898
     0.974455000  2.172081000  6.172071000     0.000000000  0.000000000  0.162020171

  length of vectors
     6.415122000  6.615281983  6.615282220     0.160973970  0.162020177  0.162020171


 
 k-points in units of 2pi/SCALE and weight: EA                                      
   0.00000000  0.00000000  0.00000000       0.125
   0.07794084  0.01160759 -0.01639036       0.125
   0.00000000  0.07641617 -0.02689245       0.250
   0.07794084  0.08802376 -0.04328281       0.250
   0.00000000  0.07641617  0.05411764       0.125
   0.07794084  0.08802376  0.03772728       0.125
 
 k-points in reciprocal lattice and weights: EA                                      
   0.00000000  0.00000000  0.00000000       0.125
   0.50000000  0.00000000 -0.00000000       0.125
   0.00000000  0.50000000 -0.00000000       0.250
   0.50000000  0.50000000  0.00000000       0.250
   0.00000000  0.50000000  0.50000000       0.125
   0.50000000  0.50000000  0.50000000       0.125
 
 position of ions in fractional coordinates (direct lattice) 
   0.58824100  0.82795500  0.38185000
   0.41175900  0.38185000  0.82795500
   0.41175900  0.17204500  0.61815000
   0.58824100  0.61815000  0.17204500
   0.81794300  0.58436700  0.91680000
   0.18205700  0.91680000  0.58436700
   0.18205700  0.41563300  0.08320000
   0.81794300  0.08320000  0.41563300
   0.16996100  0.73936700  0.26063300
   0.83003900  0.26063300  0.73936700
   0.25166000  0.77491100  0.89431100
   0.74834000  0.89431100  0.77491100
   0.74834000  0.22508900  0.10568900
   0.25166000  0.10568900  0.22508900
   0.00000000  0.63485000  0.63485000
   0.00000000  0.36515000  0.36515000
   0.00000000  0.00000000  0.00000000
   0.50000000  0.00000000  0.00000000
   0.22341800  0.47321200  0.52678800
   0.77658200  0.52678800  0.47321200
 
 position of ions in cartesian coordinates  (Angst):
   3.33892853  6.24681639  2.35680531
   3.07619347  4.29687493  5.11019704
   3.07619347  2.46838261  3.81526569
   3.33892853  4.41832407  1.06187396
   5.57114513  5.81494610  5.65855469
   0.84397687  7.26802304  3.60675461
   0.84397687  2.90025290  0.51351631
   5.57114513  1.44717596  2.56531639
   0.62381581  5.40388151  1.60864538
   5.79130619  3.31131749  4.56342562
   1.73077953  7.01285004  5.51975099
   4.68434247  7.53475186  4.78280571
   4.68434247  1.70234896  0.65232001
   1.73077953  1.18044714  1.38926529
   0.00000000  5.53284409  3.91833927
   0.00000000  3.18235491  2.25373173
   0.00000000  0.00000000  0.00000000
   3.20756100  0.00000000  0.00000000
   1.48546113  4.24050816  3.25137294
   4.92966087  4.47469084  2.92069806
 


--------------------------------------------------------------------------------------------------------


 k-point  1 :   0.0000 0.0000 0.0000  plane waves:    2591
 k-point  2 :   0.5000 0.0000-0.0000  plane waves:    2566
 k-point  3 :   0.0000 0.5000-0.0000  plane waves:    2586
 k-point  4 :   0.5000 0.5000 0.0000  plane waves:    2566
 k-point  5 :   0.0000 0.5000 0.5000  plane waves:    2620
 k-point  6 :   0.5000 0.5000 0.5000  plane waves:    2586

 maximum and minimum number of plane-waves per node :      2620     2566

 maximum number of plane-waves:      2620
 maximum index in each direction: 
   IXMAX=    8   IYMAX=    8   IZMAX=    8
   IXMIN=   -9   IYMIN=   -9   IZMIN=   -9


 serial   3D FFT for wavefunctions
 parallel 3D FFT for charge:
    minimum data exchange during FFTs selected (reduces bandwidth)


 total amount of memory used by VASP MPI-rank0    45569. kBytes
=======================================================================

   base      :      30000. kBytes
   nonl-proj :       5365. kBytes
   fftplans  :       1619. kBytes
   grid      :       3411. kBytes
   one-center:        311. kBytes
   wavefun   :       4863. kBytes
 
     INWAV:  cpu time    0.0001: real time    0.0000
 Broyden mixing: mesh for mixing (old mesh)
   NGX = 17   NGY = 17   NGZ = 17
  (NGX  = 56   NGY  = 56   NGZ  = 56)
  gives a total of   4913 points

 initial charge density was supplied:
 charge density of overlapping atoms calculated
 number of electron     109.0000000 magnetization 
 keeping initial charge density in first step


--------------------------------------------------------------------------------------------------------


 Maximum index for augmentation-charges         1264 (set IRDMAX)


--------------------------------------------------------------------------------------------------------


 First call to EWALD:  gamma=   0.278
 Maximum number of real-space cells 3x 3x 3
 Maximum number of reciprocal cells 3x 3x 3

    FEWALD:  cpu time    0.0026: real time    0.0026


--------------------------------------- Iteration      1(   1)  ---------------------------------------


    POTLOK:  cpu time    0.0362: real time    0.0363
    SETDIJ:  cpu time    0.0175: real time    0.0175
     EDDAV:  cpu time    1.0594: real time    1.0607
       DOS:  cpu time    0.0009: real time    0.0009
    --------------------------------------------
      LOOP:  cpu time    1.1139: real time    1.1153

 eigenvalue-minimisations  :   832
 total energy-change (2. order) : 0.6780931E+03  (-0.2331078E+04)
 number of electron     109.0000000 magnetization 
 augmentation part      109.0000000 magnetization 

 Free energy of the ion-electron system (eV)
  ---------------------------------------------------
  alpha Z        PSCENC =       552.45260884
  Ewald energy   TEWEN  =     -5059.49274060
  -Hartree energ DENC   =      -952.61160278
  -exchange      EXHF   =         0.00000000
  -V(xc)+E(xc)   XCENC  =      -770.04211952
  PAW double counting   =      5171.05454107    -4356.08836938
  entropy T*S    EENTRO =        -0.07139537
  eigenvalues    EBANDS =      1405.40799530
  atomic energy  EATOM  =      4687.48422623
  Solvation  Ediel_sol  =         0.00000000
  ---------------------------------------------------
  free energy    TOTEN  =       678.09314379 eV

  energy without entropy =      678.16453915  energy(sigma->0) =      678.12884147


--------------------------------------------------------------------------------------------------------




--------------------------------------- Iteration      1(   2)  ---------------------------------------


     EDDAV:  cpu time    1.0446: real time    1.0500
       DOS:  cpu time    0.0010: real time    0.0010
    --------------------------------------------
      LOOP:  cpu time    1.0457: real time    1.0511

 eigenvalue-minimisations  :   816
 total energy-change (2. order) :-0.7148637E+03  (-0.6900992E+03)
 number of electron     109.0000000 magnetization 
 augmentation part      109.0000000 magnetization 

 Free energy of the ion-electron system (eV)
  ---------------------------------------------------
  alpha Z        PSCENC =       552.45260884
  Ewald energy   TEWEN  =     -5059.49274060
  -Hartree energ DENC   =      -952.61160278
  -exchange      EXHF   =         0.00000000
  -V(xc)+E(xc)   XCENC  =      -770.04211952
  PAW double counting   =      5171.05454107    -4356.08836938
  entropy T*S    EENTRO =        -0.05982635
  eigenvalues    EBANDS =       690.53268623
  atomic energy  EATOM  =      4687.48422623
  Solvation  Ediel_sol  =         0.00000000
  ---------------------------------------------------
  free energy    TOTEN  =       -36.77059627 eV

  energy without entropy =      -36.71076992  energy(sigma->0) =      -36.74068309


--------------------------------------------------------------------------------------------------------




--------------------------------------- Iteration      1(   3)  ---------------------------------------


     EDDAV:  cpu time    1.5701: real time    1.5719
       DOS:  cpu time    0.0012: real time    0.0012
    --------------------------------------------
      LOOP:  cpu time    1.5713: real time    1.5731

 eigenvalue-minimisations  :  1384
 total energy-change (2. order) :-0.1284726E+03  (-0.1206169E+03)
 number of electron     109.0000000 magnetization 
 augmentation part      109.0000000 magnetization 

 Free energy of the ion-electron system (eV)
  ---------------------------------------------------
  alpha Z        PSCENC =       552.45260884
  Ewald energy   TEWEN  =     -5059.49274060
  -Hartree energ DENC   =      -952.61160278
  -exchange      EXHF   =         0.00000000
  -V(xc)+E(xc)   XCENC  =      -770.04211952
  PAW double counting   =      5171.05454107    -4356.08836938
  entropy T*S    EENTRO =        -0.10993594
  eigenvalues    EBANDS =       562.11014845
  atomic energy  EATOM  =      4687.48422623
  Solvation  Ediel_sol  =         0.00000000
  ---------------------------------------------------
  free energy    TOTEN  =      -165.24324364 eV

  energy without entropy =     -165.13330769  energy(sigma->0) =     -165.18827567


--------------------------------------------------------------------------------------------------------




--------------------------------------- Iteration      1(   4)  ---------------------------------------


     EDDAV:  cpu time    1.5622: real time    1.5641
       DOS:  cpu time    0.0011: real time    0.0011
    --------------------------------------------
      LOOP:  cpu time    1.5633: real time    1.5652

 eigenvalue-minimisations  :  1336
 total energy-change (2. order) :-0.1513184E+02  (-0.1432282E+02)
 number of electron     109.0000000 magnetization 
 augmentation part      109.0000000 magnetization 

 Free energy of the ion-electron system (eV)
  ---------------------------------------------------
  alpha Z        PSCENC =       552.45260884
  Ewald energy   TEWEN  =     -5059.49274060
  -Hartree energ DENC   =      -952.61160278
  -exchange      EXHF   =         0.00000000
  -V(xc)+E(xc)   XCENC  =      -770.04211952
  PAW double counting   =      5171.05454107    -4356.08836938
  entropy T*S    EENTRO =        -0.11309436
  eigenvalues    EBANDS =       546.98146939
  atomic energy  EATOM  =      4687.48422623
  Solvation  Ediel_sol  =         0.00000000
  ---------------------------------------------------
  free energy    TOTEN  =      -180.37508112 eV

  energy without entropy =     -180.26198676  energy(sigma->0) =     -180.31853394


--------------------------------------------------------------------------------------------------------




--------------------------------------- Iteration      1(   5)  ---------------------------------------


     EDDAV:  cpu time    1.5369: real time    1.5388
       DOS:  cpu time    0.0012: real time    0.0012
    CHARGE:  cpu time    0.0549: real time    0.0550
    MIXING:  cpu time    0.0016: real time    0.0016
    --------------------------------------------
      LOOP:  cpu time    1.5946: real time    1.5966

 eigenvalue-minimisations  :  1328
 total energy-change (2. order) :-0.9427785E+00  (-0.9034571E+00)
 number of electron     108.9999865 magnetization 
 augmentation part       39.4461098 magnetization 

 Broyden mixing:
  rms(total) = 0.56091E+01    rms(broyden)= 0.56078E+01
  rms(prec ) = 0.81129E+01
  weight for this iteration     100.00

 Free energy of the ion-electron system (eV)
  ---------------------------------------------------
  alpha Z        PSCENC =       552.45260884
  Ewald energy   TEWEN  =     -5059.49274060
  -Hartree energ DENC   =      -952.61160278
  -exchange      EXHF   =         0.00000000
  -V(xc)+E(xc)   XCENC  =      -770.04211952
  PAW double counting   =      5171.05454107    -4356.08836938
  entropy T*S    EENTRO =        -0.11493329
  eigenvalues    EBANDS =       546.04052977
  atomic energy  EATOM  =      4687.48422623
  Solvation  Ediel_sol  =         0.00000000
  ---------------------------------------------------
  free energy    TOTEN  =      -181.31785966 eV

  energy without entropy =     -181.20292637  energy(sigma->0) =     -181.26039302


--------------------------------------------------------------------------------------------------------




--------------------------------------- Iteration      1(   6)  ---------------------------------------


    POTLOK:  cpu time    0.0360: real time    0.0361
    SETDIJ:  cpu time    0.0207: real time    0.0207
     EDDAV:  cpu time    1.8075: real time    1.8096
       DOS:  cpu time    0.0011: real time    0.0011
    CHARGE:  cpu time    0.0458: real time    0.0458
    MIXING:  cpu time    0.0017: real time    0.0017
    --------------------------------------------
      LOOP:  cpu time    1.9127: real time    1.9149

 eigenvalue-minimisations  :  1632
 total energy-change (2. order) :-0.6712600E+02  (-0.9263539E+02)
 number of electron     108.9999772 magnetization 
 augmentation part       51.3149611 magnetization 

 Broyden mixing:
  rms(total) = 0.78448E+01    rms(broyden)= 0.78439E+01
  rms(prec ) = 0.18684E+02
  weight for this iteration     100.00

 eigenvalues of (default mixing * dielectric matrix)
  average eigenvalue GAMMA=   0.3797
  0.3797

 Free energy of the ion-electron system (eV)
  ---------------------------------------------------
  alpha Z        PSCENC =       552.45260884
  Ewald energy   TEWEN  =     -5059.49274060
  -Hartree energ DENC   =      -858.97473846
  -exchange      EXHF   =         0.00000000
  -V(xc)+E(xc)   XCENC  =      -770.87649908
  PAW double counting   =      6729.55616836    -5910.94698825
  entropy T*S    EENTRO =        -0.07764645
  eigenvalues    EBANDS =       382.43175115
  atomic energy  EATOM  =      4687.48422623
  Solvation  Ediel_sol  =         0.00000000
  ---------------------------------------------------
  free energy    TOTEN  =      -248.44385827 eV

  energy without entropy =     -248.36621181  energy(sigma->0) =     -248.40503504


--------------------------------------------------------------------------------------------------------




--------------------------------------- Iteration      1(   7)  ---------------------------------------


    POTLOK:  cpu time    0.0298: real time    0.0298
    SETDIJ:  cpu time    0.0168: real time    0.0168
     EDDAV:  cpu time    1.4835: real time    1.4848
       DOS:  cpu time    0.0011: real time    0.0011
    CHARGE:  cpu time    0.0527: real time    0.0527
    MIXING:  cpu time    0.0018: real time    0.0018
    --------------------------------------------
      LOOP:  cpu time    1.5856: real time    1.5870

 eigenvalue-minimisations  :  1376
 total energy-change (2. order) : 0.8354369E+02  (-0.6662803E+02)
 number of electron     108.9999853 magnetization 
 augmentation part       44.9499443 magnetization 

 Broyden mixing:
  rms(total) = 0.27047E+01    rms(broyden)= 0.27029E+01
  rms(prec ) = 0.56431E+01
  weight for this iteration     100.00

 eigenvalues of (default mixing * dielectric matrix)
  average eigenvalue GAMMA=   0.5524
  0.8825  0.2222

 Free energy of the ion-electron system (eV)
  ---------------------------------------------------
  alpha Z        PSCENC =       552.45260884
  Ewald energy   TEWEN  =     -5059.49274060
  -Hartree energ DENC   =      -876.50596861
  -exchange      EXHF   =         0.00000000
  -V(xc)+E(xc)   XCENC  =      -769.69456027
  PAW double counting   =      6986.04770683    -6176.23465744
  entropy T*S    EENTRO =        -0.12084854
  eigenvalues    EBANDS =       491.16406248
  atomic energy  EATOM  =      4687.48422623
  Solvation  Ediel_sol  =         0.00000000
  ---------------------------------------------------
  free energy    TOTEN  =      -164.90017108 eV

  energy without entropy =     -164.77932254  energy(sigma->0) =     -164.83974681


--------------------------------------------------------------------------------------------------------




--------------------------------------- Iteration      1(   8)  ---------------------------------------


    POTLOK:  cpu time    0.0311: real time    0.0311
    SETDIJ:  cpu time    0.0172: real time    0.0172
     EDDAV:  cpu time    1.5209: real time    1.5223
       DOS:  cpu time    0.0012: real time    0.0012
    CHARGE:  cpu time    0.0505: real time    0.0505
    MIXING:  cpu time    0.0018: real time    0.0018
    --------------------------------------------
      LOOP:  cpu time    1.6226: real time    1.6242

 eigenvalue-minimisations  :  1376
 total energy-change (2. order) :-0.1732016E+01  (-0.2025859E+02)
 number of electron     108.9999789 magnetization 
 augmentation part       44.5867894 magnetization 

 Broyden mixing:
  rms(total) = 0.24305E+01    rms(broyden)= 0.24296E+01
  rms(prec ) = 0.51055E+01
  weight for this iteration     100.00

 eigenvalues of (default mixing * dielectric matrix)
  average eigenvalue GAMMA=   0.5698
  1.2197  0.2448  0.2448

 Free energy of the ion-electron system (eV)
  ---------------------------------------------------
  alpha Z        PSCENC =       552.45260884
  Ewald energy   TEWEN  =     -5059.49274060
  -Hartree energ DENC   =      -867.47011727
  -exchange      EXHF   =         0.00000000
  -V(xc)+E(xc)   XCENC  =      -769.52025929
  PAW double counting   =      7342.38054609    -6537.29836024
  entropy T*S    EENTRO =        -0.13654319
  eigenvalues    EBANDS =       484.96845188
  atomic energy  EATOM  =      4687.48422623
  Solvation  Ediel_sol  =         0.00000000
  ---------------------------------------------------
  free energy    TOTEN  =      -166.63218755 eV

  energy without entropy =     -166.49564436  energy(sigma->0) =     -166.56391595


--------------------------------------------------------------------------------------------------------




--------------------------------------- Iteration      1(   9)  ---------------------------------------


    POTLOK:  cpu time    0.0306: real time    0.0307
    SETDIJ:  cpu time    0.0177: real time    0.0177
     EDDAV:  cpu time    1.6633: real time    1.6651
       DOS:  cpu time    0.0012: real time    0.0012
    CHARGE:  cpu time    0.0515: real time    0.0516
    MIXING:  cpu time    0.0019: real time    0.0019
    --------------------------------------------
      LOOP:  cpu time    1.7662: real time    1.7682

 eigenvalue-minimisations  :  1440
 total energy-change (2. order) : 0.3204092E+01  (-0.5669042E+01)
 number of electron     108.9999991 magnetization 
 augmentation part       43.8925549 magnetization 

 Broyden mixing:
  rms(total) = 0.25004E+01    rms(broyden)= 0.24968E+01
  rms(prec ) = 0.48960E+01
  weight for this iteration     100.00

 eigenvalues of (default mixing * dielectric matrix)
  average eigenvalue GAMMA=   0.4800
  1.2772  0.2498  0.2498  0.1431

 Free energy of the ion-electron system (eV)
  ---------------------------------------------------
  alpha Z        PSCENC =       552.45260884
  Ewald energy   TEWEN  =     -5059.49274060
  -Hartree energ DENC   =      -863.03605744
  -exchange      EXHF   =         0.00000000
  -V(xc)+E(xc)   XCENC  =      -768.90776995
  PAW double counting   =      7920.31834699    -7121.29223978
  entropy T*S    EENTRO =        -0.10904372
  eigenvalues    EBANDS =       489.15457410
  atomic energy  EATOM  =      4687.48422623
  Solvation  Ediel_sol  =         0.00000000
  ---------------------------------------------------
  free energy    TOTEN  =      -163.42809532 eV

  energy without entropy =     -163.31905161  energy(sigma->0) =     -163.37357347


--------------------------------------------------------------------------------------------------------




--------------------------------------- Iteration      1(  10)  ---------------------------------------


    POTLOK:  cpu time    0.0322: real time    0.0322
    SETDIJ:  cpu time    0.0181: real time    0.0181
     EDDAV:  cpu time    1.8120: real time    1.8139
       DOS:  cpu time    0.0013: real time    0.0013
    CHARGE:  cpu time    0.0511: real time    0.0511
    MIXING:  cpu time    0.0021: real time    0.0021
    --------------------------------------------
      LOOP:  cpu time    1.9167: real time    1.9187

 eigenvalue-minimisations  :  1592
 total energy-change (2. order) : 0.3446536E+01  (-0.1620004E+01)
 number of electron     108.9999821 magnetization 
 augmentation part       43.9956267 magnetization 

 Broyden mixing:
  rms(total) = 0.97759E+00    rms(broyden)= 0.97289E+00
  rms(prec ) = 0.13591E+01
  weight for this iteration     100.00

 eigenvalues of (default mixing * dielectric matrix)
  average eigenvalue GAMMA=   0.5003
  1.4623  0.3890  0.3062  0.2158  0.1280

 Free energy of the ion-electron system (eV)
  ---------------------------------------------------
  alpha Z        PSCENC =       552.45260884
  Ewald energy   TEWEN  =     -5059.49274060
  -Hartree energ DENC   =      -855.94826109
  -exchange      EXHF   =         0.00000000
  -V(xc)+E(xc)   XCENC  =      -769.01676430
  PAW double counting   =      8039.42288650    -7240.51831737
  entropy T*S    EENTRO =        -0.14416789
  eigenvalues    EBANDS =       485.77897054
  atomic energy  EATOM  =      4687.48422623
  Solvation  Ediel_sol  =         0.00000000
  ---------------------------------------------------
  free energy    TOTEN  =      -159.98155914 eV

  energy without entropy =     -159.83739125  energy(sigma->0) =     -159.90947519


--------------------------------------------------------------------------------------------------------




--------------------------------------- Iteration      1(  11)  ---------------------------------------


    POTLOK:  cpu time    0.0324: real time    0.0324
    SETDIJ:  cpu time    0.0166: real time    0.0166
     EDDAV:  cpu time    1.4941: real time    1.4959
       DOS:  cpu time    0.0013: real time    0.0013
    CHARGE:  cpu time    0.0511: real time    0.0512
    MIXING:  cpu time    0.0020: real time    0.0020
    --------------------------------------------
      LOOP:  cpu time    1.5974: real time    1.5993

 eigenvalue-minimisations  :  1288
 total energy-change (2. order) : 0.2885025E+00  (-0.2763082E+00)
 number of electron     108.9999839 magnetization 
 augmentation part       44.2769745 magnetization 

 Broyden mixing:
  rms(total) = 0.71689E+00    rms(broyden)= 0.71680E+00
  rms(prec ) = 0.98750E+00
  weight for this iteration     100.00

 eigenvalues of (default mixing * dielectric matrix)
  average eigenvalue GAMMA=   0.5830
  1.8379  0.6212  0.4201  0.2462  0.2462  0.1263

 Free energy of the ion-electron system (eV)
  ---------------------------------------------------
  alpha Z        PSCENC =       552.45260884
  Ewald energy   TEWEN  =     -5059.49274060
  -Hartree energ DENC   =      -850.67545221
  -exchange      EXHF   =         0.00000000
  -V(xc)+E(xc)   XCENC  =      -768.78587087
  PAW double counting   =      8269.69872047    -7471.23234882
  entropy T*S    EENTRO =        -0.12980646
  eigenvalues    EBANDS =       480.98760682
  atomic energy  EATOM  =      4687.48422623
  Solvation  Ediel_sol  =         0.00000000
  ---------------------------------------------------
  free energy    TOTEN  =      -159.69305661 eV

  energy without entropy =     -159.56325015  energy(sigma->0) =     -159.62815338


--------------------------------------------------------------------------------------------------------




--------------------------------------- Iteration      1(  12)  ---------------------------------------


    POTLOK:  cpu time    0.0318: real time    0.0318
    SETDIJ:  cpu time    0.0173: real time    0.0174
     EDDAV:  cpu time    1.5551: real time    1.5568
       DOS:  cpu time    0.0012: real time    0.0012
    CHARGE:  cpu time    0.0510: real time    0.0511
    MIXING:  cpu time    0.0021: real time    0.0021
    --------------------------------------------
      LOOP:  cpu time    1.6585: real time    1.6603

 eigenvalue-minimisations  :  1312
 total energy-change (2. order) : 0.2143849E+00  (-0.1548798E+00)
 number of electron     108.9999829 magnetization 
 augmentation part       44.8674374 magnetization 

 Broyden mixing:
  rms(total) = 0.42809E+00    rms(broyden)= 0.42784E+00
  rms(prec ) = 0.70433E+00
  weight for this iteration     100.00

 eigenvalues of (default mixing * dielectric matrix)
  average eigenvalue GAMMA=   0.7013
  2.3304  1.1289  0.6040  0.2701  0.2247  0.2247  0.1264

 Free energy of the ion-electron system (eV)
  ---------------------------------------------------
  alpha Z        PSCENC =       552.45260884
  Ewald energy   TEWEN  =     -5059.49274060
  -Hartree energ DENC   =      -840.70790288
  -exchange      EXHF   =         0.00000000
  -V(xc)+E(xc)   XCENC  =      -768.57846497
  PAW double counting   =      8552.57989775    -7754.18420557
  entropy T*S    EENTRO =        -0.15388024
  eigenvalues    EBANDS =       471.12178974
  atomic energy  EATOM  =      4687.48422623
  Solvation  Ediel_sol  =         0.00000000
  ---------------------------------------------------
  free energy    TOTEN  =      -159.47867171 eV

  energy without entropy =     -159.32479148  energy(sigma->0) =     -159.40173160


--------------------------------------------------------------------------------------------------------




--------------------------------------- Iteration      1(  13)  ---------------------------------------


    POTLOK:  cpu time    0.0325: real time    0.0325
    SETDIJ:  cpu time    0.0171: real time    0.0171
     EDDAV:  cpu time    1.7998: real time    1.8018
       DOS:  cpu time    0.0012: real time    0.0012
    CHARGE:  cpu time    0.0521: real time    0.0521
    MIXING:  cpu time    0.0022: real time    0.0022
    --------------------------------------------
      LOOP:  cpu time    1.9048: real time    1.9069

 eigenvalue-minimisations  :  1552
 total energy-change (2. order) :-0.2795210E+00  (-0.3987292E+00)
 number of electron     108.9999848 magnetization 
 augmentation part       45.1386797 magnetization 

 Broyden mixing:
  rms(total) = 0.72872E+00    rms(broyden)= 0.72835E+00
  rms(prec ) = 0.13849E+01
  weight for this iteration     100.00

 eigenvalues of (default mixing * dielectric matrix)
  average eigenvalue GAMMA=   0.6822
  1.8546  1.8546  0.7054  0.2861  0.2372  0.2372  0.1266  0.1557

 Free energy of the ion-electron system (eV)
  ---------------------------------------------------
  alpha Z        PSCENC =       552.45260884
  Ewald energy   TEWEN  =     -5059.49274060
  -Hartree energ DENC   =      -838.56029641
  -exchange      EXHF   =         0.00000000
  -V(xc)+E(xc)   XCENC  =      -768.09298306
  PAW double counting   =      8823.69591921    -8026.02319029
  entropy T*S    EENTRO =        -0.15161272
  eigenvalues    EBANDS =       468.92987610
  atomic energy  EATOM  =      4687.48422623
  Solvation  Ediel_sol  =         0.00000000
  ---------------------------------------------------
  free energy    TOTEN  =      -159.75819271 eV

  energy without entropy =     -159.60657999  energy(sigma->0) =     -159.68238635


--------------------------------------------------------------------------------------------------------




--------------------------------------- Iteration      1(  14)  ---------------------------------------


    POTLOK:  cpu time    0.0316: real time    0.0316
    SETDIJ:  cpu time    0.0173: real time    0.0173
     EDDAV:  cpu time    1.8594: real time    1.8615
       DOS:  cpu time    0.0012: real time    0.0024
    CHARGE:  cpu time    0.0523: real time    0.0524
    MIXING:  cpu time    0.0025: real time    0.0025
    --------------------------------------------
      LOOP:  cpu time    1.9642: real time    1.9677

 eigenvalue-minimisations  :  1632
 total energy-change (2. order) : 0.2846334E+00  (-0.2361617E+00)
 number of electron     108.9999846 magnetization 
 augmentation part       45.1826095 magnetization 

 Broyden mixing:
  rms(total) = 0.38350E+00    rms(broyden)= 0.38184E+00
  rms(prec ) = 0.75953E+00
  weight for this iteration     100.00

 eigenvalues of (default mixing * dielectric matrix)
  average eigenvalue GAMMA=   0.6401
  1.9014  1.9014  0.7179  0.3133  0.2393  0.2393  0.1840  0.1298  0.1344

 Free energy of the ion-electron system (eV)
  ---------------------------------------------------
  alpha Z        PSCENC =       552.45260884
  Ewald energy   TEWEN  =     -5059.49274060
  -Hartree energ DENC   =      -837.89178168
  -exchange      EXHF   =         0.00000000
  -V(xc)+E(xc)   XCENC  =      -768.33378987
  PAW double counting   =      8754.64441708    -7956.30319917
  entropy T*S    EENTRO =        -0.15184843
  eigenvalues    EBANDS =       468.11854826
  atomic energy  EATOM  =      4687.48422623
  Solvation  Ediel_sol  =         0.00000000
  ---------------------------------------------------
  free energy    TOTEN  =      -159.47355935 eV

  energy without entropy =     -159.32171092  energy(sigma->0) =     -159.39763513


--------------------------------------------------------------------------------------------------------




--------------------------------------- Iteration      1(  15)  ---------------------------------------


    POTLOK:  cpu time    0.0315: real time    0.0316
    SETDIJ:  cpu time    0.0169: real time    0.0169
     EDDAV:  cpu time    1.7547: real time    1.7567
       DOS:  cpu time    0.0013: real time    0.0013
    CHARGE:  cpu time    0.0513: real time    0.0513
    MIXING:  cpu time    0.0024: real time    0.0024
    --------------------------------------------
      LOOP:  cpu time    1.8580: real time    1.8602

 eigenvalue-minimisations  :  1544
 total energy-change (2. order) : 0.6859028E-01  (-0.4620961E-01)
 number of electron     108.9999836 magnetization 
 augmentation part       45.0691158 magnetization 

 Broyden mixing:
  rms(total) = 0.16234E+00    rms(broyden)= 0.16069E+00
  rms(prec ) = 0.26850E+00
  weight for this iteration     100.00

 eigenvalues of (default mixing * dielectric matrix)
  average eigenvalue GAMMA=   0.6495
  2.0591  2.0591  0.7428  0.4718  0.2536  0.2536  0.2275  0.1729  0.1271  0.1271

 Free energy of the ion-electron system (eV)
  ---------------------------------------------------
  alpha Z        PSCENC =       552.45260884
  Ewald energy   TEWEN  =     -5059.49274060
  -Hartree energ DENC   =      -840.19366748
  -exchange      EXHF   =         0.00000000
  -V(xc)+E(xc)   XCENC  =      -768.29055798
  PAW double counting   =      8734.90729507    -7936.68174964
  entropy T*S    EENTRO =        -0.14938987
  eigenvalues    EBANDS =       470.55900638
  atomic energy  EATOM  =      4687.48422623
  Solvation  Ediel_sol  =         0.00000000
  ---------------------------------------------------
  free energy    TOTEN  =      -159.40496906 eV

  energy without entropy =     -159.25557919  energy(sigma->0) =     -159.33027413


--------------------------------------------------------------------------------------------------------




--------------------------------------- Iteration      1(  16)  ---------------------------------------


    POTLOK:  cpu time    0.0324: real time    0.0324
    SETDIJ:  cpu time    0.0173: real time    0.0173
     EDDAV:  cpu time    1.5781: real time    1.5798
       DOS:  cpu time    0.0013: real time    0.0013
    CHARGE:  cpu time    0.0497: real time    0.0497
    MIXING:  cpu time    0.0025: real time    0.0025
    --------------------------------------------
      LOOP:  cpu time    1.6813: real time    1.6831

 eigenvalue-minimisations  :  1312
 total energy-change (2. order) :-0.2708807E-02  (-0.2300483E-01)
 number of electron     108.9999839 magnetization 
 augmentation part       45.0084585 magnetization 

 Broyden mixing:
  rms(total) = 0.14174E+00    rms(broyden)= 0.14151E+00
  rms(prec ) = 0.24710E+00
  weight for this iteration     100.00

 eigenvalues of (default mixing * dielectric matrix)
  average eigenvalue GAMMA=   0.6728
  2.2454  2.2454  0.7437  0.7437  0.2950  0.2414  0.2414  0.2397  0.1568  0.1243
  0.1243

 Free energy of the ion-electron system (eV)
  ---------------------------------------------------
  alpha Z        PSCENC =       552.45260884
  Ewald energy   TEWEN  =     -5059.49274060
  -Hartree energ DENC   =      -840.80077131
  -exchange      EXHF   =         0.00000000
  -V(xc)+E(xc)   XCENC  =      -768.31717311
  PAW double counting   =      8710.85829365    -7912.52369017
  entropy T*S    EENTRO =        -0.15085632
  eigenvalues    EBANDS =       471.08242492
  atomic energy  EATOM  =      4687.48422623
  Solvation  Ediel_sol  =         0.00000000
  ---------------------------------------------------
  free energy    TOTEN  =      -159.40767787 eV

  energy without entropy =     -159.25682155  energy(sigma->0) =     -159.33224971


--------------------------------------------------------------------------------------------------------




--------------------------------------- Iteration      1(  17)  ---------------------------------------


    POTLOK:  cpu time    0.0328: real time    0.0328
    SETDIJ:  cpu time    0.0170: real time    0.0170
     EDDAV:  cpu time    1.6569: real time    1.6587
       DOS:  cpu time    0.0012: real time    0.0012
    CHARGE:  cpu time    0.0491: real time    0.0492
    MIXING:  cpu time    0.0025: real time    0.0025
    --------------------------------------------
      LOOP:  cpu time    1.7596: real time    1.7616

 eigenvalue-minimisations  :  1384
 total energy-change (2. order) : 0.1162232E-01  (-0.1030077E-01)
 number of electron     108.9999836 magnetization 
 augmentation part       45.0859503 magnetization 

 Broyden mixing:
  rms(total) = 0.48119E-01    rms(broyden)= 0.47734E-01
  rms(prec ) = 0.67333E-01
  weight for this iteration     100.00

 eigenvalues of (default mixing * dielectric matrix)
  average eigenvalue GAMMA=   0.7048
  2.1951  2.1951  0.9823  0.9823  0.7052  0.2801  0.2437  0.2437  0.2215  0.1604
  0.1238  0.1238

 Free energy of the ion-electron system (eV)
  ---------------------------------------------------
  alpha Z        PSCENC =       552.45260884
  Ewald energy   TEWEN  =     -5059.49274060
  -Hartree energ DENC   =      -839.76942067
  -exchange      EXHF   =         0.00000000
  -V(xc)+E(xc)   XCENC  =      -768.21757502
  PAW double counting   =      8778.09102173    -7979.79693528
  entropy T*S    EENTRO =        -0.15100359
  eigenvalues    EBANDS =       470.00376281
  atomic energy  EATOM  =      4687.48422623
  Solvation  Ediel_sol  =         0.00000000
  ---------------------------------------------------
  free energy    TOTEN  =      -159.39605555 eV

  energy without entropy =     -159.24505196  energy(sigma->0) =     -159.32055376


--------------------------------------------------------------------------------------------------------




--------------------------------------- Iteration      1(  18)  ---------------------------------------


    POTLOK:  cpu time    0.0322: real time    0.0322
    SETDIJ:  cpu time    0.0173: real time    0.0173
     EDDAV:  cpu time    1.5248: real time    1.5264
       DOS:  cpu time    0.0012: real time    0.0012
    CHARGE:  cpu time    0.0511: real time    0.0511
    MIXING:  cpu time    0.0032: real time    0.0032
    --------------------------------------------
      LOOP:  cpu time    1.6297: real time    1.6315

 eigenvalue-minimisations  :  1272
 total energy-change (2. order) : 0.5540767E-03  (-0.8120636E-03)
 number of electron     108.9999837 magnetization 
 augmentation part       45.0781556 magnetization 

 Broyden mixing:
  rms(total) = 0.25723E-01    rms(broyden)= 0.25597E-01
  rms(prec ) = 0.43108E-01
  weight for this iteration     100.00

 eigenvalues of (default mixing * dielectric matrix)
  average eigenvalue GAMMA=   0.7397
  2.3946  2.1096  1.3115  1.0518  0.6738  0.6738  0.2809  0.2436  0.2436  0.2246
  0.1601  0.1238  0.1238

 Free energy of the ion-electron system (eV)
  ---------------------------------------------------
  alpha Z        PSCENC =       552.45260884
  Ewald energy   TEWEN  =     -5059.49274060
  -Hartree energ DENC   =      -839.93964263
  -exchange      EXHF   =         0.00000000
  -V(xc)+E(xc)   XCENC  =      -768.23568272
  PAW double counting   =      8767.82899192    -7969.53683172
  entropy T*S    EENTRO =        -0.15163406
  eigenvalues    EBANDS =       470.19520328
  atomic energy  EATOM  =      4687.48422623
  Solvation  Ediel_sol  =         0.00000000
  ---------------------------------------------------
  free energy    TOTEN  =      -159.39550148 eV

  energy without entropy =     -159.24386742  energy(sigma->0) =     -159.31968445


--------------------------------------------------------------------------------------------------------




--------------------------------------- Iteration      1(  19)  ---------------------------------------


    POTLOK:  cpu time    0.0321: real time    0.0321
    SETDIJ:  cpu time    0.0175: real time    0.0175
     EDDAV:  cpu time    1.5238: real time    1.5256
       DOS:  cpu time    0.0013: real time    0.0013
    CHARGE:  cpu time    0.0494: real time    0.0494
    MIXING:  cpu time    0.0029: real time    0.0029
    --------------------------------------------
      LOOP:  cpu time    1.6270: real time    1.6288

 eigenvalue-minimisations  :  1320
 total energy-change (2. order) : 0.2409442E-03  (-0.1110983E-03)
 number of electron     108.9999836 magnetization 
 augmentation part       45.0806499 magnetization 

 Broyden mixing:
  rms(total) = 0.10945E-01    rms(broyden)= 0.10912E-01
  rms(prec ) = 0.16662E-01
  weight for this iteration     100.00

 eigenvalues of (default mixing * dielectric matrix)
  average eigenvalue GAMMA=   0.7904
  2.4145  1.9555  1.9555  1.0349  0.8077  0.8077  0.6900  0.2807  0.2437  0.2437
  0.2242  0.1601  0.1238  0.1238

 Free energy of the ion-electron system (eV)
  ---------------------------------------------------
  alpha Z        PSCENC =       552.45260884
  Ewald energy   TEWEN  =     -5059.49274060
  -Hartree energ DENC   =      -839.91066591
  -exchange      EXHF   =         0.00000000
  -V(xc)+E(xc)   XCENC  =      -768.22626953
  PAW double counting   =      8773.73165047    -7975.44872304
  entropy T*S    EENTRO =        -0.15137825
  eigenvalues    EBANDS =       470.16603127
  atomic energy  EATOM  =      4687.48422623
  Solvation  Ediel_sol  =         0.00000000
  ---------------------------------------------------
  free energy    TOTEN  =      -159.39526053 eV

  energy without entropy =     -159.24388228  energy(sigma->0) =     -159.31957140


--------------------------------------------------------------------------------------------------------




--------------------------------------- Iteration      1(  20)  ---------------------------------------


    POTLOK:  cpu time    0.0312: real time    0.0312
    SETDIJ:  cpu time    0.0168: real time    0.0168
     EDDAV:  cpu time    1.5489: real time    1.5510
       DOS:  cpu time    0.0012: real time    0.0012
    CHARGE:  cpu time    0.0488: real time    0.0489
    MIXING:  cpu time    0.0027: real time    0.0027
    --------------------------------------------
      LOOP:  cpu time    1.6497: real time    1.6519

 eigenvalue-minimisations  :  1312
 total energy-change (2. order) : 0.6926901E-04  (-0.3809455E-04)
 number of electron     108.9999836 magnetization 
 augmentation part       45.0752499 magnetization 

 Broyden mixing:
  rms(total) = 0.37042E-02    rms(broyden)= 0.37021E-02
  rms(prec ) = 0.55181E-02
  weight for this iteration     100.00

 eigenvalues of (default mixing * dielectric matrix)
  average eigenvalue GAMMA=   0.8413
  2.4078  1.9721  1.9721  1.5762  0.9042  0.9042  0.7411  0.7411  0.2807  0.2437
  0.2437  0.2242  0.1601  0.1238  0.1238

 Free energy of the ion-electron system (eV)
  ---------------------------------------------------
  alpha Z        PSCENC =       552.45260884
  Ewald energy   TEWEN  =     -5059.49274060
  -Hartree energ DENC   =      -839.97066156
  -exchange      EXHF   =         0.00000000
  -V(xc)+E(xc)   XCENC  =      -768.22873324
  PAW double counting   =      8772.06799202    -7973.80227903
  entropy T*S    EENTRO =        -0.15132694
  eigenvalues    EBANDS =       470.24572302
  atomic energy  EATOM  =      4687.48422623
  Solvation  Ediel_sol  =         0.00000000
  ---------------------------------------------------
  free energy    TOTEN  =      -159.39519126 eV

  energy without entropy =     -159.24386433  energy(sigma->0) =     -159.31952779


--------------------------------------------------------------------------------------------------------




--------------------------------------- Iteration      1(  21)  ---------------------------------------


    POTLOK:  cpu time    0.0323: real time    0.0323
    SETDIJ:  cpu time    0.0172: real time    0.0173
     EDDAV:  cpu time    1.0426: real time    1.0437
       DOS:  cpu time    0.0013: real time    0.0013
    --------------------------------------------
      LOOP:  cpu time    1.0934: real time    1.0945

 eigenvalue-minimisations  :   776
 total energy-change (2. order) : 0.5750735E-05  (-0.3416520E-05)
 number of electron     108.9999836 magnetization 
 augmentation part       45.0752499 magnetization 

 Free energy of the ion-electron system (eV)
  ---------------------------------------------------
  alpha Z        PSCENC =       552.45260884
  Ewald energy   TEWEN  =     -5059.49274060
  -Hartree energ DENC   =      -840.00290493
  -exchange      EXHF   =         0.00000000
  -V(xc)+E(xc)   XCENC  =      -768.22927220
  PAW double counting   =      8771.96681949    -7973.71618513
  entropy T*S    EENTRO =        -0.15125144
  eigenvalues    EBANDS =       470.29351423
  atomic energy  EATOM  =      4687.48422623
  Solvation  Ediel_sol  =         0.00000000
  ---------------------------------------------------
  free energy    TOTEN  =      -159.39518551 eV

  energy without entropy =     -159.24393407  energy(sigma->0) =     -159.31955979


--------------------------------------------------------------------------------------------------------




 average (electrostatic) potential at core
  the test charge radii are     1.2064  1.0103
  (the norm of the test charge is              1.0000)
       1 -39.2093       2 -39.2093       3 -39.2093       4 -39.2093       5 -38.8153
       6 -38.8153       7 -38.8153       8 -38.8153       9 -39.1460      10 -39.1460
      11 -39.0672      12 -39.0672      13 -39.0672      14 -39.0672      15 -39.0259
      16 -39.0259      17 -39.3531      18 -42.8545      19 -42.7324      20 -42.7324
 
 
 
 E-fermi :   6.5292     XC(G=0): -12.4357     alpha+bet :-15.2488


 k-point     1 :       0.0000    0.0000    0.0000
  band No.  band energies     occupation 
      1      -0.2854      2.00000
      2       1.7380      2.00000
      3       2.3639      2.00000
      4       2.5398      2.00000
      5       2.6415      2.00000
      6       2.7276      2.00000
      7       2.7831      2.00000
      8       2.8177      2.00000
      9       2.8690      2.00000
     10       3.0065      2.00000
     11       3.2516      2.00000
     12       3.3488      2.00000
     13       3.3657      2.00000
     14       3.3751      2.00000
     15       3.4866      2.00000
     16       3.5482      2.00000
     17       3.6103      2.00000
     18       3.6159      2.00000
     19       3.6483      2.00000
     20       3.7868      2.00000
     21       3.8978      2.00000
     22       3.9255      2.00000
     23       3.9693      2.00000
     24       4.0474      2.00000
     25       4.2152      2.00000
     26       4.2237      2.00000
     27       4.2965      2.00000
     28       4.3682      2.00000
     29       4.3929      2.00000
     30       4.5074      2.00000
     31       4.6211      2.00000
     32       4.6462      2.00000
     33       4.7231      2.00000
     34       4.7383      2.00000
     35       4.8457      2.00000
     36       4.8903      2.00000
     37       5.0649      2.00000
     38       5.1823      2.00000
     39       5.2029      2.00000
     40       5.3099      2.00000
     41       5.3160      2.00000
     42       5.3983      2.00000
     43       5.4752      2.00000
     44       5.6395      2.00000
     45       5.7936      2.00000
     46       5.8821      2.00000
     47       5.9011      2.00000
     48       6.0504      2.00000
     49       6.2838      1.99948
     50       6.3091      1.99815
     51       6.4137      1.89744
     52       6.4318      1.83143
     53       6.4565      1.69567
     54       6.4720      1.58112
     55       6.5056      1.26068
     56       6.5257      1.03897
     57       6.6226      0.18632
     58       6.6955      0.01867
     59       6.8396      0.00001
     60       6.8955      0.00000
     61       6.9220      0.00000
     62       6.9811      0.00000
     63       7.1256      0.00000
     64       7.1450      0.00000
     65       7.2979      0.00000
     66       7.4470      0.00000
     67       7.4985      0.00000
     68       7.5152      0.00000

 k-point     2 :       0.5000    0.0000   -0.0000
  band No.  band energies     occupation 
      1       0.7695      2.00000
      2       0.8184      2.00000
      3       1.8648      2.00000
      4       2.3978      2.00000
      5       2.5279      2.00000
      6       2.7144      2.00000
      7       2.7225      2.00000
      8       2.9699      2.00000
      9       2.9725      2.00000
     10       3.0454      2.00000
     11       3.0725      2.00000
     12       3.1678      2.00000
     13       3.2571      2.00000
     14       3.3749      2.00000
     15       3.4978      2.00000
     16       3.5337      2.00000
     17       3.6198      2.00000
     18       3.6825      2.00000
     19       3.7282      2.00000
     20       3.7751      2.00000
     21       3.8604      2.00000
     22       3.9387      2.00000
     23       4.0120      2.00000
     24       4.1795      2.00000
     25       4.2210      2.00000
     26       4.3156      2.00000
     27       4.4056      2.00000
     28       4.4333      2.00000
     29       4.4552      2.00000
     30       4.5292      2.00000
     31       4.5373      2.00000
     32       4.5711      2.00000
     33       4.5881      2.00000
     34       4.6174      2.00000
     35       4.7804      2.00000
     36       4.8409      2.00000
     37       5.0815      2.00000
     38       5.1238      2.00000
     39       5.3401      2.00000
     40       5.3508      2.00000
     41       5.4201      2.00000
     42       5.5987      2.00000
     43       5.6141      2.00000
     44       5.7680      2.00000
     45       5.9037      2.00000
     46       5.9464      2.00000
     47       6.1177      2.00000
     48       6.1215      2.00000
     49       6.1438      2.00000
     50       6.1934      2.00000
     51       6.2042      2.00000
     52       6.2974      1.99896
     53       6.2998      1.99882
     54       6.4404      1.79066
     55       6.4561      1.69829
     56       6.5224      1.07562
     57       6.6366      0.12882
     58       6.7001      0.01562
     59       6.8561      0.00000
     60       6.9439      0.00000
     61       7.0385      0.00000
     62       7.1979      0.00000
     63       7.2063      0.00000
     64       7.3938      0.00000
     65       7.4461      0.00000
     66       7.4873      0.00000
     67       7.5150      0.00000
     68       7.5279      0.00000

 k-point     3 :       0.0000    0.5000   -0.0000
  band No.  band energies     occupation 
      1       0.7818      2.00000
      2       0.7971      2.00000
      3       1.7536      2.00000
      4       2.3708      2.00000
      5       2.7097      2.00000
      6       2.7249      2.00000
      7       2.8029      2.00000
      8       2.8356      2.00000
      9       2.8429      2.00000
     10       2.9695      2.00000
     11       3.0859      2.00000
     12       3.1420      2.00000
     13       3.2226      2.00000
     14       3.2983      2.00000
     15       3.4182      2.00000
     16       3.5153      2.00000
     17       3.5781      2.00000
     18       3.5874      2.00000
     19       3.8555      2.00000
     20       3.8820      2.00000
     21       3.9155      2.00000
     22       4.0303      2.00000
     23       4.0644      2.00000
     24       4.1691      2.00000
     25       4.1895      2.00000
     26       4.2317      2.00000
     27       4.3228      2.00000
     28       4.3575      2.00000
     29       4.4871      2.00000
     30       4.5518      2.00000
     31       4.6023      2.00000
     32       4.7633      2.00000
     33       4.7880      2.00000
     34       4.8834      2.00000
     35       5.0390      2.00000
     36       5.0968      2.00000
     37       5.1154      2.00000
     38       5.2404      2.00000
     39       5.3124      2.00000
     40       5.3223      2.00000
     41       5.3636      2.00000
     42       5.5314      2.00000
     43       5.5482      2.00000
     44       5.5854      2.00000
     45       5.6243      2.00000
     46       5.8080      2.00000
     47       5.8316      2.00000
     48       5.9459      2.00000
     49       5.9799      2.00000
     50       6.0009      2.00000
     51       6.1285      2.00000
     52       6.1985      2.00000
     53       6.4726      1.57584
     54       6.4906      1.41405
     55       6.5482      0.78754
     56       6.6650      0.05473
     57       6.6831      0.02951
     58       6.7603      0.00108
     59       6.8108      0.00007
     60       6.9025      0.00000
     61       6.9770      0.00000
     62       6.9950      0.00000
     63       7.1106      0.00000
     64       7.2347      0.00000
     65       7.3055      0.00000
     66       7.3815      0.00000
     67       7.5026      0.00000
     68       7.5715      0.00000

 k-point     4 :       0.5000    0.5000    0.0000
  band No.  band energies     occupation 
      1       1.1634      2.00000
      2       1.5389      2.00000
      3       1.8376      2.00000
      4       1.9175      2.00000
      5       2.0318      2.00000
      6       2.6552      2.00000
      7       2.7442      2.00000
      8       2.7782      2.00000
      9       2.9080      2.00000
     10       2.9799      2.00000
     11       3.0191      2.00000
     12       3.1686      2.00000
     13       3.1968      2.00000
     14       3.3695      2.00000
     15       3.4187      2.00000
     16       3.4234      2.00000
     17       3.5183      2.00000
     18       3.6063      2.00000
     19       3.6644      2.00000
     20       3.7872      2.00000
     21       3.9341      2.00000
     22       3.9662      2.00000
     23       4.0286      2.00000
     24       4.0871      2.00000
     25       4.1041      2.00000
     26       4.1867      2.00000
     27       4.2430      2.00000
     28       4.4017      2.00000
     29       4.4196      2.00000
     30       4.4560      2.00000
     31       4.6037      2.00000
     32       4.6671      2.00000
     33       4.8252      2.00000
     34       4.8347      2.00000
     35       4.8839      2.00000
     36       4.9565      2.00000
     37       5.1977      2.00000
     38       5.2000      2.00000
     39       5.2959      2.00000
     40       5.3229      2.00000
     41       5.4047      2.00000
     42       5.5344      2.00000
     43       5.5590      2.00000
     44       5.5855      2.00000
     45       5.6200      2.00000
     46       5.8814      2.00000
     47       5.8967      2.00000
     48       5.9908      2.00000
     49       6.0740      2.00000
     50       6.2145      1.99999
     51       6.3472      1.98991
     52       6.3753      1.97040
     53       6.3983      1.93573
     54       6.4424      1.78011
     55       6.5414      0.86224
     56       6.6118      0.24246
     57       6.8114      0.00007
     58       6.8216      0.00004
     59       6.8966      0.00000
     60       6.9039      0.00000
     61       6.9784      0.00000
     62       7.0671      0.00000
     63       7.2577      0.00000
     64       7.3115      0.00000
     65       7.4318      0.00000
     66       7.4727      0.00000
     67       7.5442      0.00000
     68       7.6351      0.00000

 k-point     5 :       0.0000    0.5000    0.5000
  band No.  band energies     occupation 
      1       0.8614      2.00000
      2       1.4814      2.00000
      3       1.6594      2.00000
      4       2.0501      2.00000
      5       2.3486      2.00000
      6       2.5564      2.00000
      7       2.7134      2.00000
      8       2.7165      2.00000
      9       2.8610      2.00000
     10       3.0157      2.00000
     11       3.1527      2.00000
     12       3.2875      2.00000
     13       3.3135      2.00000
     14       3.3481      2.00000
     15       3.4267      2.00000
     16       3.5821      2.00000
     17       3.6915      2.00000
     18       3.7040      2.00000
     19       3.7696      2.00000
     20       3.7785      2.00000
     21       3.9226      2.00000
     22       3.9266      2.00000
     23       3.9601      2.00000
     24       3.9795      2.00000
     25       4.1395      2.00000
     26       4.1939      2.00000
     27       4.2158      2.00000
     28       4.3038      2.00000
     29       4.4437      2.00000
     30       4.6133      2.00000
     31       4.6235      2.00000
     32       4.6823      2.00000
     33       4.8155      2.00000
     34       4.9257      2.00000
     35       4.9805      2.00000
     36       5.0152      2.00000
     37       5.1203      2.00000
     38       5.1608      2.00000
     39       5.2566      2.00000
     40       5.3020      2.00000
     41       5.4241      2.00000
     42       5.4645      2.00000
     43       5.4903      2.00000
     44       5.6779      2.00000
     45       5.6897      2.00000
     46       5.7687      2.00000
     47       5.8812      2.00000
     48       5.9591      2.00000
     49       5.9643      2.00000
     50       6.0938      2.00000
     51       6.1013      2.00000
     52       6.1792      2.00000
     53       6.1955      2.00000
     54       6.4368      1.80841
     55       6.5003      1.31684
     56       6.5100      1.21384
     57       6.6170      0.21391
     58       6.7129      0.00936
     59       6.8222      0.00003
     60       6.8347      0.00002
     61       7.1801      0.00000
     62       7.1806      0.00000
     63       7.2550      0.00000
     64       7.3438      0.00000
     65       7.4598      0.00000
     66       7.5554      0.00000
     67       7.6512      0.00000
     68       7.6970      0.00000

 k-point     6 :       0.5000    0.5000    0.5000
  band No.  band energies     occupation 
      1       1.5480      2.00000
      2       1.5817      2.00000
      3       1.9412      2.00000
      4       2.2209      2.00000
      5       2.2887      2.00000
      6       2.3508      2.00000
      7       2.3557      2.00000
      8       2.8323      2.00000
      9       2.8844      2.00000
     10       2.9522      2.00000
     11       2.9928      2.00000
     12       3.0427      2.00000
     13       3.0687      2.00000
     14       3.0742      2.00000
     15       3.2617      2.00000
     16       3.4180      2.00000
[...]
     31       4.8030      2.00000
     32       4.8612      2.00000
     33       4.9185      2.00000
     34       4.9742      2.00000
     35       5.1367      2.00000
     36       5.1803      2.00000
     37       5.2359      2.00000
     38       5.2633      2.00000
     39       5.3074      2.00000
     40       5.3698      2.00000
     41       5.4307      2.00000
     42       5.5678      2.00000
     43       5.6617      2.00000
     44       5.6767      2.00000
     45       5.6907      2.00000
     46       5.7335      2.00000
     47       5.7745      2.00000
     48       5.8574      2.00000
     49       5.9967      2.00000
     50       6.0575      2.00000
     51       6.1224      1.99999
     52       6.2630      1.98497
     53       6.2804      1.97115
     54       6.2813      1.97025
     55       6.3632      1.68992
     56       6.5761      0.04591
     57       6.6045      0.01650
     58       6.6451      0.00296
     59       6.8107      0.00000
     60       6.8237      0.00000
     61       6.9851      0.00000
     62       7.0649      0.00000
     63       7.0711      0.00000
     64       7.1856      0.00000
     65       7.2834      0.00000
     66       7.3195      0.00000
     67       7.4165      0.00000
     68       7.4538      0.00000

 k-point     5 :       0.0000    0.5000    0.5000
  band No.  band energies     occupation 
      1       1.0804      2.00000
      2       1.3470      2.00000
      3       1.6402      2.00000
      4       1.8729      2.00000
      5       2.7039      2.00000
      6       2.7138      2.00000
      7       2.8640      2.00000
      8       3.0401      2.00000
      9       3.2073      2.00000
     10       3.2287      2.00000
     11       3.2615      2.00000
     12       3.2683      2.00000
     13       3.5120      2.00000
     14       3.5137      2.00000
     15       3.5359      2.00000
     16       3.5626      2.00000
     17       3.8051      2.00000
     18       3.8576      2.00000
     19       3.9823      2.00000
     20       4.0659      2.00000
     21       4.1925      2.00000
     22       4.2540      2.00000
     23       4.2973      2.00000
     24       4.3080      2.00000
     25       4.3551      2.00000
     26       4.5189      2.00000
     27       4.6030      2.00000
     28       4.6140      2.00000
     29       4.7206      2.00000
     30       4.8039      2.00000
     31       4.8662      2.00000
     32       4.9375      2.00000
     33       4.9700      2.00000
     34       5.0950      2.00000
     35       5.2519      2.00000
     36       5.3318      2.00000
     37       5.3492      2.00000
     38       5.3758      2.00000
     39       5.3857      2.00000
     40       5.3863      2.00000
     41       5.4209      2.00000
     42       5.5086      2.00000
     43       5.6050      2.00000
     44       5.6956      2.00000
     45       5.7828      2.00000
     46       5.7958      2.00000
     47       5.8172      2.00000
     48       5.8494      2.00000
     49       6.1507      1.99994
     50       6.2039      1.99892
     51       6.2091      1.99860
     52       6.2867      1.96395
     53       6.3081      1.92710
     54       6.4306      1.04900
     55       6.4539      0.78881
     56       6.5824      0.03699
     57       6.6271      0.00658
     58       6.6550      0.00186
     59       6.6671      0.00102
     60       6.7587      0.00000
     61       6.8175      0.00000
     62       6.8189      0.00000
     63       6.8912      0.00000
     64       7.0705      0.00000
     65       7.1032      0.00000
     66       7.1499      0.00000
     67       7.3373      0.00000
     68       7.4427      0.00000

 k-point     6 :       0.5000    0.5000    0.5000
  band No.  band energies     occupation 
      1       1.6835      2.00000
      2       1.7585      2.00000
      3       1.8359      2.00000
      4       2.1054      2.00000
      5       2.1187      2.00000
      6       2.1235      2.00000
      7       2.7640      2.00000
      8       2.8923      2.00000
      9       2.9313      2.00000
     10       2.9675      2.00000
     11       3.1693      2.00000
     12       3.1842      2.00000
     13       3.3850      2.00000
     14       3.4775      2.00000
     15       3.7473      2.00000
     16       3.8716      2.00000
     17       3.9258      2.00000
     18       3.9835      2.00000
     19       3.9920      2.00000
     20       4.0379      2.00000
     21       4.0774      2.00000
     22       4.1666      2.00000
     23       4.2022      2.00000
     24       4.2704      2.00000
     25       4.3201      2.00000
     26       4.4327      2.00000
     27       4.4897      2.00000
     28       4.5684      2.00000
     29       4.6753      2.00000
     30       4.6911      2.00000
     31       4.9494      2.00000
     32       4.9957      2.00000
     33       5.0025      2.00000
     34       5.0807      2.00000
     35       5.0817      2.00000
     36       5.2811      2.00000
     37       5.3171      2.00000
     38       5.3286      2.00000
     39       5.3487      2.00000
     40       5.3666      2.00000
     41       5.5297      2.00000
     42       5.5629      2.00000
     43       5.6532      2.00000
     44       5.6727      2.00000
     45       5.6896      2.00000
     46       5.6944      2.00000
     47       5.9315      2.00000
     48       5.9808      2.00000
     49       6.0656      2.00000
     50       6.1555      1.99992
     51       6.1715      1.99980
     52       6.1990      1.99915
     53       6.3572      1.72848
     54       6.4260      1.10097
     55       6.4436      0.90210
     56       6.5133      0.26793
     57       6.5530      0.09496
     58       6.7367      0.00002
     59       6.7755      0.00000
     60       6.8116      0.00000
     61       6.9039      0.00000
     62       7.0351      0.00000
     63       7.1352      0.00000
     64       7.2462      0.00000
     65       7.2804      0.00000
     66       7.2842      0.00000
     67       7.2947      0.00000
     68       7.4761      0.00000


--------------------------------------------------------------------------------------------------------


 soft charge-density along one line, spin component           1
         0         1         2         3         4         5         6         7         8         9
 total charge-density along one line
 
 pseudopotential strength for first ion, spin component:           1
 -1.287   0.009  -0.010   0.022  -0.001  -1.804   0.009  -0.010
  0.009  -1.317   0.014   0.011  -0.019   0.009  -1.833   0.013
 -0.010   0.014  -1.307   0.008  -0.018  -0.010   0.013  -1.824
  0.022   0.011   0.008  -1.287   0.011   0.021   0.010   0.008
 -0.001  -0.019  -0.018   0.011  -1.293  -0.001  -0.018  -0.018
 -1.804   0.009  -0.010   0.021  -0.001  -2.271   0.008  -0.009
  0.009  -1.833   0.013   0.010  -0.018   0.008  -2.299   0.013
 -0.010   0.013  -1.824   0.008  -0.018  -0.009   0.013  -2.290
  0.021   0.010   0.008  -1.804   0.011   0.020   0.010   0.007
 -0.001  -0.018  -0.018   0.011  -1.810  -0.001  -0.017  -0.017
 -0.006  -0.011   0.004  -0.004  -0.004  -0.006  -0.011   0.004
  0.015   0.027  -0.009   0.008   0.005   0.014   0.025  -0.009
 -0.006   0.001  -0.003  -0.000  -0.005  -0.005   0.001  -0.003
 -0.000   0.002   0.005  -0.009  -0.002  -0.000   0.001   0.005
  0.003  -0.000   0.001  -0.003  -0.005   0.002  -0.000   0.001
  0.009  -0.003   0.004   0.000   0.006   0.008  -0.003   0.004
  0.000  -0.004  -0.006   0.011   0.002   0.000  -0.003  -0.005
 -0.005   0.000  -0.004  -0.000   0.008  -0.004   0.000  -0.003
 total augmentation occupancy for first ion, spin component:           1
  0.549   0.018  -0.035   0.032  -0.024  -0.934  -0.033   0.043  -0.061   0.065  -0.041  -0.000   0.030   0.002   0.005   0.001
  0.018   0.478   0.012   0.034  -0.003  -0.030  -0.736  -0.052  -0.069  -0.021   0.031   0.001   0.022  -0.029   0.005  -0.000
 -0.035   0.012   0.453   0.046   0.037   0.040  -0.054  -0.665  -0.137  -0.103   0.065   0.001  -0.041   0.087  -0.009  -0.002
  0.032   0.034   0.046   0.473   0.017  -0.059  -0.074  -0.136  -0.692  -0.015  -0.089  -0.002  -0.013   0.003  -0.063  -0.000
 -0.024  -0.003   0.037   0.017   0.468   0.067  -0.021  -0.105  -0.012  -0.658   0.051   0.002  -0.059  -0.046  -0.013  -0.002
 -0.934  -0.030   0.040  -0.059   0.067   2.010   0.042  -0.072   0.126  -0.091   0.115  -0.000  -0.048   0.002   0.004  -0.002
 -0.033  -0.736  -0.054  -0.074  -0.021   0.042   1.762   0.107   0.156  -0.034   0.077  -0.003  -0.011   0.062  -0.000   0.001
  0.043  -0.052  -0.665  -0.136  -0.105  -0.072   0.107   1.644   0.189   0.121  -0.125  -0.002   0.057  -0.042  -0.029   0.004
 -0.061  -0.069  -0.137  -0.692  -0.012   0.126   0.156   0.189   1.592   0.071   0.130   0.003   0.009  -0.088   0.065   0.001
  0.065  -0.021  -0.103  -0.015  -0.658  -0.091  -0.034   0.121   0.071   1.722  -0.111  -0.001   0.053   0.026   0.013   0.003
 -0.041   0.031   0.065  -0.089   0.051   0.115   0.077  -0.125   0.130  -0.111   1.974   0.043   0.011   0.009  -0.029  -0.001
 -0.000   0.001   0.001  -0.002   0.002  -0.000  -0.003  -0.002   0.003  -0.001   0.043   0.001  -0.001  -0.001  -0.001  -0.000
  0.030   0.022  -0.041  -0.013  -0.059  -0.048  -0.011   0.057   0.009   0.053   0.011  -0.001   0.380  -0.005   0.004   0.010
  0.002  -0.029   0.087   0.003  -0.046   0.002   0.062  -0.042  -0.088   0.026   0.009  -0.001  -0.005   0.346   0.022  -0.001
  0.005   0.005  -0.009  -0.063  -0.013   0.004  -0.000  -0.029   0.065   0.013  -0.029  -0.001   0.004   0.022   0.363  -0.001
  0.001  -0.000  -0.002  -0.000  -0.002  -0.002   0.001   0.004   0.001   0.003  -0.001  -0.000   0.010  -0.001  -0.001   0.000
 -0.000  -0.001   0.003   0.000  -0.001   0.001   0.003  -0.003  -0.001   0.003   0.001  -0.000  -0.001   0.010   0.000  -0.000
  0.000  -0.000  -0.001  -0.003   0.000   0.000   0.001   0.001   0.007  -0.001  -0.001  -0.000  -0.001  -0.000   0.010  -0.000


------------------------ aborting loop because EDIFF is reached ----------------------------------------


    CHARGE:  cpu time    0.0271: real time    0.0271
    FORLOC:  cpu time    0.0037: real time    0.0037
    FORNL :  cpu time    0.3900: real time    0.3902
    STRESS:  cpu time    0.4603: real time    0.4606
    FORCOR:  cpu time    0.0180: real time    0.0180
    FORHAR:  cpu time    0.0061: real time    0.0061
    MIXING:  cpu time    0.0009: real time    0.0009
    OFIELD:  cpu time    0.0000: real time    0.0000

  FORCE on cell =-STRESS in cart. coord.  units (eV):
  Direction    XX          YY          ZZ          XY          YZ          ZX
  --------------------------------------------------------------------------------------
  Alpha Z   550.97602   550.97602   550.97602
  Ewald   -1822.57439 -1720.56636 -1741.95254    44.96000    30.38481   -63.48522
  Hartree   210.28877   219.26431   214.85314    20.21445     6.26727   -28.54358
  E(xc)    -495.73529  -498.23303  -497.86109    -0.56176    -0.52845     0.79322
  Local     350.50672   252.32981   275.87128   -61.63397   -33.44705    87.02950
  n-local   -95.80011   -93.24580   -99.19779    -2.06381    -1.90205     0.93153
  augment   449.03738   448.68541   448.67189     0.21870     0.01924    -0.29255
  Kinetic   853.32315   840.47811   848.90512     2.56462    -0.66785     6.17834
  Fock        0.00000     0.00000     0.00000     0.00000     0.00000     0.00000
  -------------------------------------------------------------------------------------
  Total       0.02226    -0.01750    -0.02800     0.00366     0.01492    -0.00517
  in kB       0.13729    -0.10793    -0.17270     0.02260     0.09202    -0.03191
  external pressure =       -0.05 kB  Pullay stress =        0.00 kB


 VOLUME and BASIS-vectors are now :
 -----------------------------------------------------------------------------
  energy-cutoff  :      267.88
  volume of cell :      259.77
      direct lattice vectors                 reciprocal lattice vectors
     6.680937241 -0.087807111  0.123986990     0.150640089  0.024410169 -0.034468087
    -1.143612814  6.271953210 -0.556297192     0.002805574  0.156364736 -0.040439145
     1.143612828  1.557313293  6.100954162    -0.002805574  0.013761572  0.160921945

  length of vectors
     6.682664535  6.399587010  6.399587228     0.156449167  0.161533669  0.161533664


 FORCES acting on ions
    electron-ion (+dipol)            ewald-force                    non-local-force                 convergence-correction
 -----------------------------------------------------------------------------------------------
   -.325E+01 -.323E+02 -.346E+00   0.273E+01 0.325E+02 0.115E+01   0.514E+00 -.221E+00 -.806E+00   0.357E-02 -.521E-02 0.127E-01
   0.325E+01 -.110E+02 -.303E+02   -.273E+01 0.119E+02 0.303E+02   -.514E+00 -.834E+00 0.596E-01   -.357E-02 0.103E-01 -.913E-02
   0.325E+01 0.323E+02 0.346E+00   -.273E+01 -.325E+02 -.115E+01   -.514E+00 0.221E+00 0.806E+00   -.357E-02 0.521E-02 -.127E-01
   -.325E+01 0.110E+02 0.303E+02   0.273E+01 -.119E+02 -.303E+02   0.514E+00 0.834E+00 -.596E-01   0.357E-02 -.103E-01 0.913E-02
   -.159E+01 -.639E+01 0.367E+02   0.245E+01 0.560E+01 -.367E+02   -.852E+00 0.788E+00 0.677E-01   -.541E-03 0.377E-02 0.239E-02
   0.159E+01 0.325E+02 -.182E+02   -.245E+01 -.328E+02 0.175E+02   0.852E+00 0.325E+00 0.721E+00   0.541E-03 0.350E-02 0.276E-02
   0.159E+01 0.639E+01 -.367E+02   -.245E+01 -.560E+01 0.367E+02   0.852E+00 -.788E+00 -.677E-01   0.541E-03 -.377E-02 -.239E-02
   -.159E+01 -.325E+02 0.182E+02   0.245E+01 0.328E+02 -.175E+02   -.852E+00 -.325E+00 -.721E+00   -.541E-03 -.350E-02 -.276E-02
   0.130E+02 -.884E+01 0.125E+02   -.137E+02 0.947E+01 -.134E+02   0.643E+00 -.626E+00 0.884E+00   -.926E-02 -.705E-02 0.996E-02
   -.130E+02 0.884E+01 -.125E+02   0.137E+02 -.947E+01 0.134E+02   -.643E+00 0.626E+00 -.884E+00   0.926E-02 0.705E-02 -.996E-02
   0.262E+02 0.375E+01 0.765E+01   -.263E+02 -.377E+01 -.810E+01   0.829E-01 0.340E-01 0.460E+00   -.103E-01 -.154E-01 -.859E-02
   -.262E+02 0.846E+01 0.100E+01   0.263E+02 -.889E+01 -.869E+00   -.829E-01 0.445E+00 -.121E+00   0.103E-01 -.132E-01 -.117E-01
   -.262E+02 -.375E+01 -.765E+01   0.263E+02 0.377E+01 0.810E+01   -.829E-01 -.340E-01 -.460E+00   0.103E-01 0.154E-01 0.859E-02
   0.262E+02 -.846E+01 -.100E+01   -.263E+02 0.889E+01 0.869E+00   0.829E-01 -.445E+00 0.121E+00   -.103E-01 0.132E-01 0.117E-01
   0.752E-06 -.326E+02 -.231E+02   -.451E-06 0.322E+02 0.228E+02   0.818E-09 0.448E+00 0.317E+00   0.283E-09 -.235E-02 -.166E-02
   -.752E-06 0.326E+02 0.231E+02   0.451E-06 -.322E+02 -.228E+02   -.818E-09 -.448E+00 -.317E+00   -.282E-09 0.235E-02 0.166E-02
   -.128E-13 -.111E-12 -.383E-13   -.577E-12 0.215E-11 0.732E-12   -.242E-27 -.373E-26 -.630E-25   -.172E-12 0.506E-13 -.730E-13
   -.101E-12 -.268E-12 -.202E-11   -.239E-11 -.662E-11 -.217E-11   -.323E-25 -.978E-25 -.103E-24   0.307E-12 -.360E-12 0.152E-12
   0.608E+00 0.741E+01 -.105E+02   -.317E+00 -.712E+01 0.100E+02   -.301E+00 -.298E+00 0.420E+00   0.969E-02 0.247E-04 -.348E-04
   -.608E+00 -.741E+01 0.105E+02   0.317E+00 0.712E+01 -.100E+02   0.301E+00 0.298E+00 -.420E+00   -.969E-02 -.247E-04 0.348E-04
 -----------------------------------------------------------------------------------------------
   0.194E-11 0.362E-11 0.283E-11   0.178E-13 0.249E-13 -.195E-13   -.444E-15 -.555E-16 0.333E-15   -.209E-12 -.940E-12 -.922E-12
 
 
 POSITION                                       TOTAL-FORCE (eV/Angst)
 -----------------------------------------------------------------------------------
      2.60018      5.84891      2.22434         0.001274      0.002689      0.007418
      4.08076      3.95203      4.90281        -0.001274      0.007890      0.000074
      4.08076      1.89255      3.44430        -0.001274     -0.002689     -0.007418
      2.60018      3.78943      0.76583         0.001274     -0.007890     -0.000074
      5.09617      3.88581      0.11600         0.000542      0.001113     -0.001577
      1.58477      1.31157      3.75093        -0.000542     -0.001118      0.001573
      0.44115      2.29834     -0.54831        -0.000542     -0.001113      0.001577
      6.23978      0.15794      2.47401         0.000542      0.001118     -0.001573
      0.49005      5.04487      1.17639         0.005438      0.003547     -0.005009
      6.19089      2.69659      4.49225        -0.005438     -0.003547      0.005009
      2.07814      6.06989      4.75792         0.003468      0.002330      0.000369
      4.60280      6.41529      4.27020        -0.003468      0.001122      0.002075
      4.60280      1.67157      0.91072        -0.003468     -0.002330     -0.000369
      2.07814      1.32617      1.39844         0.003468     -0.001122     -0.002075
      0.00000      5.10393      3.61458        -0.000000     -0.003633     -0.002573
      0.00000      2.72534      1.93007         0.000000      0.003633      0.002573
      0.00000      0.00000      0.00000        -0.000000      0.000000      0.000000
      3.34047     -0.04390      0.06199        -0.000000     -0.000000      0.000000
      2.00968      3.60089      3.21534        -0.000267     -0.001744      0.002463
      4.67126      4.14057      2.45330         0.000267      0.001744     -0.002463
 -----------------------------------------------------------------------------------
    total drift:                                0.000000      0.000000      0.000000


--------------------------------------------------------------------------------------------------------



  FREE ENERGIE OF THE ION-ELECTRON SYSTEM (eV)
  ---------------------------------------------------
  free  energy   TOTEN  =      -174.18053102 eV

  energy  without entropy=     -174.07712075  energy(sigma->0) =     -174.12882589
 
 d Force = 0.7692566E-04[ 0.416E-04, 0.112E-03]  d Energy = 0.7673298E-04 0.193E-06
 d Force = 0.1211378E+00[ 0.120E+00, 0.122E+00]  d Ewald  = 0.4805334E-01 0.731E-01


--------------------------------------------------------------------------------------------------------


    POTLOK:  cpu time    0.0228: real time    0.0229


--------------------------------------------------------------------------------------------------------


 Conjugate gradient step on ions:
 trial-energy change:   -0.000077  1 .order   -0.000092   -0.000132   -0.000052
  (g-gl).g = 0.336E-04      g.g   = 0.903E-04  gl.gl    = 0.137E-03
 g(Force)  = 0.768E-04   g(Stress)= 0.135E-04 ortho     = 0.167E-04
 gamma     =   0.24586
 trial     =   1.39350
 opt step  =   2.29789  (harmonic =   2.29789) maximal distance =0.00195448
 next E    =  -174.180563   (d E  =  -0.00011)


--------------------------------------------------------------------------------------------------------


  
 reached required accuracy - stopping structural energy minimisation
     LOOP+:  cpu time    5.4125: real time    5.4166
    4ORBIT:  cpu time    0.0000: real time    0.0000

 total amount of memory used by VASP MPI-rank0    45569. kBytes
=======================================================================

   base      :      30000. kBytes
   nonl-proj :       5365. kBytes
   fftplans  :       1619. kBytes
   grid      :       3411. kBytes
   one-center:        311. kBytes
   wavefun   :       4863. kBytes
 
  
  
 General timing and accounting informations for this job:
 ========================================================
  
                  Total CPU time used (sec):      925.559
                            User time (sec):      916.493
                          System time (sec):        9.067
                         Elapsed time (sec):      926.973
  
                   Maximum memory used (kb):      217992.
                   Average memory used (kb):           0.
  
                          Minor page faults:      1372516
                          Major page faults:            0
                 Voluntary context switches:          358
