<?xml version="1.0" encoding="ISO-8859-1"?>
<modeling>
 <generator>
  <i name="program" type="string">vasp </i>
  <i name="version" type="string">5.4.4.18Apr17-6-g9f103f2a35  </i>
  <i name="subversion" type="string">(build Jul 11 2019 11:52:51) complex            parallel </i>
  <i name="platform" type="string">LinuxIFC </i>
  <i name="date" type="string">2023 11 29 </i>
  <i name="time" type="string">17:04:20 </i>
 </generator>
 <incar>
  <i type="int" name="ISTART">     0</i>
  <i type="string" name="PREC">normal</i>
  <i type="int" name="IBRION">     2</i>
  <i name="EDIFF">      0.00001000</i>
  <i name="EDIFFG">     -0.01000000</i>
  <i type="int" name="NSW">   500</i>
  <i type="int" name="ISIF">     3</i>
  <i name="POTIM">      0.50000000</i>
  <i type="int" name="ISMEAR">     0</i>
  <i name="SIGMA">      0.10000000</i>
  <i name="PSTRESS">      0.00000000</i>
  <i type="logical" name="LWAVE"> F  </i>
  <i type="logical" name="LCHARG"> F  </i>
  <v type="int" name="KPOINT_BSE">    -1     0     0     0</v>
 </incar>
 <structure name="primitive_cell" >
  <crystal>
   <varray name="basis" >
    <v>       6.41512200       0.00000000       0.00000000 </v>
    <v>      -0.97445500       6.54311800       0.00000000 </v>
    <v>       0.97445500       2.17208100       6.17207100 </v>
   </varray>
   <i name="volume">    259.07206444 </i>
   <varray name="rec_basis" >
    <v>       0.15588168       0.02321518      -0.03278072 </v>
    <v>       0.00000000       0.15283233      -0.05378490 </v>
    <v>       0.00000000       0.00000000       0.16202017 </v>
   </varray>
  </crystal>
  <varray name="positions" >
   <v>      -0.41175900      -0.17204500       0.38185000 </v>
   <v>      -0.18205700       0.08320000       0.41563300 </v>
   <v>      -0.41175900      -0.38185000       0.17204500 </v>
   <v>      -0.22341800      -0.47321200       0.47321200 </v>
   <v>      -0.50000000       0.00000000       0.00000000 </v>
   <v>      -0.25166000       0.22508900       0.10568900 </v>
   <v>       0.22341800       0.47321200      -0.47321200 </v>
   <v>       0.16996100      -0.26063300       0.26063300 </v>
   <v>       0.18205700      -0.08320000      -0.41563300 </v>
   <v>      -0.25166000      -0.10568900      -0.22508900 </v>
   <v>       0.25166000       0.10568900       0.22508900 </v>
   <v>       0.00000000       0.00000000       0.00000000 </v>
   <v>       0.41175900       0.17204500      -0.38185000 </v>
   <v>       0.41175900       0.38185000      -0.17204500 </v>
   <v>       0.00000000      -0.36515000      -0.36515000 </v>
   <v>       0.25166000      -0.22508900      -0.10568900 </v>
   <v>      -0.18205700      -0.41563300      -0.08320000 </v>
   <v>       0.00000000       0.36515000       0.36515000 </v>
   <v>      -0.16996100       0.26063300      -0.26063300 </v>
   <v>       0.18205700       0.41563300       0.08320000 </v>
  </varray>
 </structure>
 <varray name="primitive_index" >
  <v type="int" >        1 </v>
  <v type="int" >        8 </v>
  <v type="int" >        4 </v>
  <v type="int" >       20 </v>
  <v type="int" >       18 </v>
  <v type="int" >       13 </v>
  <v type="int" >       19 </v>
  <v type="int" >        9 </v>
  <v type="int" >        6 </v>
  <v type="int" >       12 </v>
  <v type="int" >       14 </v>
  <v type="int" >       17 </v>
  <v type="int" >        3 </v>
  <v type="int" >        2 </v>
  <v type="int" >       15 </v>
  <v type="int" >       11 </v>
  <v type="int" >        5 </v>
  <v type="int" >       16 </v>
  <v type="int" >       10 </v>
  <v type="int" >        7 </v>
 </varray>
 <kpoints>
  <generation param="Gamma">
   <v type="int" name="divisions">       2        2        2 </v>
   <v name="usershift">      0.00000000       0.00000000       0.00000000 </v>
   <v name="genvec1">      0.50000000      -0.00000000       0.00000000 </v>
   <v name="genvec2">      0.00000000       0.50000000      -0.00000000 </v>
   <v name="genvec3">      0.00000000       0.00000000       0.50000000 </v>
   <v name="shift">      0.00000000       0.00000000       0.00000000 </v>
  </generation>
  <varray name="kpointlist" >
   <v>       0.00000000       0.00000000       0.00000000 </v>
   <v>       0.50000000       0.00000000      -0.00000000 </v>
   <v>       0.00000000       0.50000000      -0.00000000 </v>
   <v>       0.50000000       0.50000000       0.00000000 </v>
   <v>       0.00000000       0.50000000       0.50000000 </v>
   <v>       0.50000000       0.50000000       0.50000000 </v>
  </varray>
  <varray name="weights" >
   <v>       0.12500000 </v>
   <v>       0.12500000 </v>
   <v>       0.25000000 </v>
   <v>       0.25000000 </v>
   <v>       0.12500000 </v>
   <v>       0.12500000 </v>
  </varray>
 </kpoints>
 <parameters>
  <separator name="general" >
   <i type="string" name="SYSTEM">unknown system</i>
   <i type="logical" name="LCOMPAT"> F  </i>
  </separator>
  <separator name="electronic" >
   <i type="string" name="PREC">normal</i>
   <i name="ENMAX">    267.88200000</i>
   <i name="ENAUG">    511.36800000</i>
   <i name="EDIFF">      0.00001000</i>
   <i type="int" name="IALGO">    38</i>
   <i type="int" name="IWAVPR">    11</i>
   <i type="int" name="NBANDS">    68</i>
   <i name="NELECT">    109.00000000</i>
   <i type="int" name="TURBO">     0</i>
   <i type="int" name="IRESTART">     0</i>
   <i type="int" name="NREBOOT">     0</i>
   <i type="int" name="NMIN">     0</i>
   <i name="EREF">      0.00000000</i>
   <separator name="electronic smearing" >
    <i type="int" name="ISMEAR">     0</i>
    <i name="SIGMA">      0.10000000</i>
    <i name="KSPACING">      0.50000000</i>
    <i type="logical" name="KGAMMA"> T  </i>
   </separator>
   <separator name="electronic projectors" >
    <i type="logical" name="LREAL"> F  </i>
    <v name="ROPT">      0.00000000      0.00000000</v>
    <i type="int" name="LMAXPAW">  -100</i>
    <i type="int" name="LMAXMIX">     2</i>
    <i type="logical" name="NLSPLINE"> F  </i>
   </separator>
   <separator name="electronic startup" >
    <i type="int" name="ISTART">     0</i>
    <i type="int" name="ICHARG">     2</i>
    <i type="int" name="INIWAV">     1</i>
   </separator>
   <separator name="electronic spin" >
    <i type="int" name="ISPIN">     1</i>
    <i type="logical" name="LNONCOLLINEAR"> F  </i>
    <v name="MAGMOM">      1.00000000      1.00000000      1.00000000      1.00000000      1.00000000      1.00000000      1.00000000      1.00000000      1.00000000      1.00000000      1.00000000      1.00000000      1.00000000      1.00000000      1.00000000      1.00000000      1.00000000      1.00000000      1.00000000      1.00000000
</v>
    <i name="NUPDOWN">     -1.00000000</i>
    <i type="logical" name="LSORBIT"> F  </i>
    <v name="SAXIS">      0.00000000      0.00000000      1.00000000</v>
    <i type="logical" name="LSPIRAL"> F  </i>
    <v name="QSPIRAL">      0.00000000      0.00000000      0.00000000</v>
    <i type="logical" name="LZEROZ"> F  </i>
   </separator>
   <separator name="electronic exchange-correlation" >
    <i type="logical" name="LASPH"> F  </i>
    <i type="logical" name="LMETAGGA"> F  </i>
   </separator>
   <separator name="electronic convergence" >
    <i type="int" name="NELM">    60</i>
    <i type="int" name="NELMDL">    -5</i>
    <i type="int" name="NELMIN">     2</i>
    <i name="ENINI">    267.88200000</i>
    <separator name="electronic convergence detail" >
     <i type="logical" name="LDIAG"> T  </i>
     <i type="logical" name="LSUBROT"> F  </i>
     <i name="WEIMIN">      0.00100000</i>
     <i name="EBREAK">      0.00000004</i>
     <i name="DEPER">      0.30000000</i>
     <i type="int" name="NRMM">     4</i>
     <i name="TIME">      0.40000000</i>
    </separator>
   </separator>
   <separator name="electronic mixer" >
    <i name="AMIX">      0.40000000</i>
    <i name="BMIX">      1.00000000</i>
    <i name="AMIN">      0.10000000</i>
    <i name="AMIX_MAG">      1.60000000</i>
    <i name="BMIX_MAG">      1.00000000</i>
    <separator name="electronic mixer details" >
     <i type="int" name="IMIX">     4</i>
     <i type="logical" name="MIXFIRST"> F  </i>
     <i type="int" name="MAXMIX">   -45</i>
     <i name="WC">    100.00000000</i>
     <i type="int" name="INIMIX">     1</i>
     <i type="int" name="MIXPRE">     1</i>
     <i type="int" name="MREMOVE">     5</i>
    </separator>
   </separator>
   <separator name="electronic dipolcorrection" >
    <i type="logical" name="LDIPOL"> F  </i>
    <i type="logical" name="LMONO"> F  </i>
    <i type="int" name="IDIPOL">     0</i>
    <i name="EPSILON">      1.00000000</i>
    <v name="DIPOL">   -100.00000000   -100.00000000   -100.00000000</v>
    <i name="EFIELD">      0.00000000</i>
   </separator>
  </separator>
  <separator name="grids" >
   <i type="int" name="NGX">    28</i>
   <i type="int" name="NGY">    28</i>
   <i type="int" name="NGZ">    28</i>
   <i type="int" name="NGXF">    56</i>
   <i type="int" name="NGYF">    56</i>
   <i type="int" name="NGZF">    56</i>
   <i type="logical" name="ADDGRID"> F  </i>
  </separator>
  <separator name="ionic" >
   <i type="int" name="NSW">   500</i>
   <i type="int" name="IBRION">     2</i>
   <i type="int" name="MDALGO">     0</i>
   <i type="int" name="ISIF">     3</i>
   <i name="PSTRESS">      0.00000000</i>
   <i name="EDIFFG">     -0.01000000</i>
   <i type="int" name="NFREE">     1</i>
   <i name="POTIM">      0.50000000</i>
   <i name="SMASS">     -3.00000000</i>
   <i name="SCALEE">      1.00000000</i>
  </separator>
  <separator name="ionic md" >
   <i name="TEBEG">      0.00010000</i>
   <i name="TEEND">      0.00010000</i>
   <i type="int" name="NBLOCK">     1</i>
   <i type="int" name="KBLOCK">   500</i>
   <i type="int" name="NPACO">   256</i>
   <i name="APACO">     16.00000000</i>
  </separator>
  <separator name="symmetry" >
   <i type="int" name="ISYM">     2</i>
   <i name="SYMPREC">      0.00001000</i>
  </separator>
  <separator name="dos" >
   <i type="int" name="LORBIT">     0</i>
   <v name="RWIGS">     -1.00000000     -1.00000000</v>
   <i type="int" name="NEDOS">   301</i>
   <i name="EMIN">     10.00000000</i>
   <i name="EMAX">    -10.00000000</i>
   <i name="EFERMI">      0.00000000</i>
  </separator>
  <separator name="writing" >
   <i type="int" name="NWRITE">     2</i>
   <i type="logical" name="LWAVE"> F  </i>
   <i type="logical" name="LDOWNSAMPLE"> F  </i>
   <i type="logical" name="LCHARG"> F  </i>
   <i type="logical" name="LPARD"> F  </i>
   <i type="logical" name="LVTOT"> F  </i>
   <i type="logical" name="LVHAR"> F  </i>
   <i type="logical" name="LELF"> F  </i>
   <i type="logical" name="LOPTICS"> F  </i>
   <v name="STM">      0.00000000      0.00000000      0.00000000      0.00000000      0.00000000      0.00000000      0.00000000</v>
  </separator>
  <separator name="performance" >
   <i type="int" name="NPAR">     4</i>
   <i type="int" name="NSIM">     4</i>
   <i type="int" name="NBLK">    -1</i>
   <i type="logical" name="LPLANE"> T  </i>
   <i type="logical" name="LSCALAPACK"> T  </i>
   <i type="logical" name="LSCAAWARE"> F  </i>
   <i type="logical" name="LSCALU"> F  </i>
   <i type="logical" name="LASYNC"> F  </i>
   <i type="logical" name="LORBITALREAL"> F  </i>
  </separator>
  <separator name="miscellaneous" >
   <i type="int" name="IDIOT">     3</i>
   <i type="int" name="ISPECIAL">     0</i>
   <i type="logical" name="LMUSIC"> F  </i>
   <v name="POMASS">     50.94100000     55.84700000</v>
   <v name="DARWINR">      0.00000000      0.00000000</v>
   <v name="DARWINV">      1.00000000      1.00000000</v>
   <i type="logical" name="LCORR"> T  </i>
  </separator>
  <i type="logical" name="GGA_COMPAT"> T  </i>
  <i type="logical" name="LBERRY"> F  </i>
  <i type="int" name="ICORELEVEL">     0</i>
  <i type="logical" name="LDAU"> F  </i>
  <i type="int" name="I_CONSTRAINED_M">     0</i>
  <separator name="electronic exchange-correlation" >
   <i type="string" name="GGA">--</i>
   <i type="int" name="VOSKOWN">     0</i>
   <i type="logical" name="LHFCALC"> F  </i>
   <i type="string" name="PRECFOCK"></i>
   <i type="logical" name="LSYMGRAD"> F  </i>
   <i type="logical" name="LHFONE"> F  </i>
   <i type="logical" name="LRHFCALC"> F  </i>
   <i type="logical" name="LTHOMAS"> F  </i>
   <i type="logical" name="LMODELHF"> F  </i>
   <i name="ENCUT4O">     -1.00000000</i>
   <i type="int" name="EXXOEP">     0</i>
   <i type="int" name="FOURORBIT">     0</i>
   <i name="AEXX">      0.00000000</i>
   <i name="HFALPHA">      0.00000000</i>
   <i name="MCALPHA">      0.00000000</i>
   <i name="ALDAX">      1.00000000</i>
   <i name="AGGAX">      1.00000000</i>
   <i name="ALDAC">      1.00000000</i>
   <i name="AGGAC">      1.00000000</i>
   <i type="int" name="NKREDX">     1</i>
   <i type="int" name="NKREDY">     1</i>
   <i type="int" name="NKREDZ">     1</i>
   <i type="logical" name="SHIFTRED"> F  </i>
   <i type="logical" name="ODDONLY"> F  </i>
   <i type="logical" name="EVENONLY"> F  </i>
   <i type="int" name="LMAXFOCK">     0</i>
   <i type="int" name="NMAXFOCKAE">     0</i>
   <i type="logical" name="LFOCKAEDFT"> F  </i>
   <i name="HFSCREEN">      0.00000000</i>
   <i name="HFSCREENC">      0.00000000</i>
   <i type="int" name="NBANDSGWLOW">     0</i>
  </separator>
  <separator name="vdW DFT" >
   <i type="logical" name="LUSE_VDW"> F  </i>
   <i name="Zab_VDW">     -0.84910000</i>
   <i name="PARAM1">      0.12340000</i>
   <i name="PARAM2">      1.00000000</i>
   <i name="PARAM3">      0.00000000</i>
  </separator>
  <separator name="model GW" >
   <i type="int" name="MODEL_GW">     0</i>
   <i name="MODEL_EPS0">      7.77216193</i>
   <i name="MODEL_ALPHA">      1.00000000</i>
  </separator>
  <separator name="linear response parameters" >
   <i type="logical" name="LEPSILON"> F  </i>
   <i type="logical" name="LRPA"> F  </i>
   <i type="logical" name="LNABLA"> F  </i>
   <i type="logical" name="LVEL"> F  </i>
   <i type="int" name="KINTER">     0</i>
   <i name="CSHIFT">      0.10000000</i>
   <i name="OMEGAMAX">     -1.00000000</i>
   <i name="DEG_THRESHOLD">      0.00200000</i>
   <i name="RTIME">     -0.10000000</i>
   <i name="WPLASMAI">      0.00000000</i>
   <v name="DFIELD">      0.00000000      0.00000000      0.00000000</v>
   <v name="WPLASMA">      0.00000000      0.00000000      0.00000000      0.00000000      0.00000000      0.00000000      0.00000000      0.00000000      0.00000000</v>
  </separator>
  <separator name="orbital magnetization" >
   <i type="logical" name="NUCIND"> F  </i>
   <v name="MAGPOS">      0.00000000      0.00000000      0.00000000</v>
   <i type="logical" name="LNICSALL"> T  </i>
   <i type="logical" name="ORBITALMAG"> F  </i>
   <i type="logical" name="LMAGBLOCH"> F  </i>
   <i type="logical" name="LCHIMAG"> F  </i>
   <i type="logical" name="LGAUGE"> T  </i>
   <i type="int" name="MAGATOM">     0</i>
   <v name="MAGDIPOL">      0.00000000      0.00000000      0.00000000</v>
   <v name="AVECCONST">      0.00000000      0.00000000      0.00000000</v>
  </separator>
  <separator name="response functions" >
   <i type="logical" name="LADDER"> F  </i>
   <i type="logical" name="LRPAFORCE"> F  </i>
   <i type="logical" name="LFXC"> F  </i>
   <i type="logical" name="LHARTREE"> T  </i>
   <i type="int" name="IBSE">     0</i>
   <v type="int" name="KPOINT">    -1     0     0     0</v>
   <i type="logical" name="LTCTE"> F  </i>
   <i type="logical" name="LTETE"> F  </i>
   <i type="logical" name="LTRIPLET"> F  </i>
   <i type="logical" name="LFXCEPS"> F  </i>
   <i type="logical" name="LFXHEG"> F  </i>
   <i type="int" name="NATURALO">     2</i>
   <i type="logical" name="L2ORDER"> F  </i>
   <i type="logical" name="LMP2LT"> F  </i>
   <i type="logical" name="LUSEW"> F  </i>
   <i name="ENCUTGW">     -2.00000000</i>
   <i name="ENCUTGWSOFT">     -2.00000000</i>
   <i name="ENCUTLF">     -1.00000000</i>
   <i type="int" name="LMAXMP2">    -1</i>
   <i name="SCISSOR">      0.00000000</i>
   <i type="int" name="NOMEGA">     0</i>
   <i type="int" name="NOMEGAR">     0</i>
   <i type="int" name="NBANDSGW">    -1</i>
   <i type="int" name="NBANDSO">    -1</i>
   <i type="int" name="NBANDSV">    -1</i>
   <i type="int" name="NELM">     1</i>
   <i type="int" name="NELMHF">     1</i>
   <i type="int" name="DIM">     3</i>
   <i type="int" name="ANTIRES">     0</i>
   <i name="OMEGAMAX">    -30.00000000</i>
   <i name="OMEGAMIN">    -30.00000000</i>
   <i name="OMEGATL">   -200.00000000</i>
   <i type="int" name="OMEGAGRID">   140</i>
   <i name="CSHIFT">     -0.10000000</i>
   <i type="logical" name="SELFENERGY"> F  </i>
   <i type="logical" name="LSPECTRAL"> F  </i>
   <i type="logical" name="LSPECTRALGW"> F  </i>
   <i type="logical" name="LSINGLES"> F  </i>
   <i type="logical" name="LFERMIGW"> F  </i>
   <i type="logical" name="ODDONLYGW"> F  </i>
   <i type="logical" name="EVENONLYGW"> F  </i>
   <i type="int" name="NKREDLFX">     1</i>
   <i type="int" name="NKREDLFY">     1</i>
   <i type="int" name="NKREDLFZ">     1</i>
   <i type="int" name="MAXMEM">  2800</i>
   <i type="int" name="TELESCOPE">     0</i>
   <i type="int" name="TAUPAR">     1</i>
   <i type="int" name="OMEGAPAR">    -1</i>
   <i name="LAMBDA">      1.00000000</i>
  </separator>
  <separator name="External order field" >
   <i name="OFIELD_KAPPA">      0.00000000</i>
   <v name="OFIELD_K">      0.00000000      0.00000000      0.00000000</v>
   <i name="OFIELD_Q6_NEAR">      0.00000000</i>
   <i name="OFIELD_Q6_FAR">      0.00000000</i>
   <i name="OFIELD_A">      0.00000000</i>
  </separator>
 </parameters>
 <atominfo>
  <atoms>      20 </atoms>
  <types>       2 </types>
  <array name="atoms" >
   <dimension dim="1">ion</dimension>
   <field type="string">element</field>
   <field type="int">atomtype</field>
   <set>
    <rc><c>V </c><c>   1</c></rc>
    <rc><c>V </c><c>   1</c></rc>
    <rc><c>V </c><c>   1</c></rc>
    <rc><c>V </c><c>   1</c></rc>
    <rc><c>V </c><c>   1</c></rc>
    <rc><c>V </c><c>   1</c></rc>
    <rc><c>V </c><c>   1</c></rc>
    <rc><c>V </c><c>   1</c></rc>
    <rc><c>V </c><c>   1</c></rc>
    <rc><c>V </c><c>   1</c></rc>
    <rc><c>V </c><c>   1</c></rc>
    <rc><c>V </c><c>   1</c></rc>
    <rc><c>V </c><c>   1</c></rc>
    <rc><c>V </c><c>   1</c></rc>
    <rc><c>V </c><c>   1</c></rc>
    <rc><c>V </c><c>   1</c></rc>
    <rc><c>V </c><c>   1</c></rc>
    <rc><c>Fe</c><c>   2</c></rc>
    <rc><c>Fe</c><c>   2</c></rc>
    <rc><c>Fe</c><c>   2</c></rc>
   </set>
  </array>
  <array name="atomtypes" >
   <dimension dim="1">type</dimension>
   <field type="int">atomspertype</field>
   <field type="string">element</field>
   <field>mass</field>
   <field>valence</field>
   <field type="string">pseudopotential</field>
   <set>
    <rc><c>  17</c><c>V </c><c>     50.94100000</c><c>      5.00000000</c><c>  PAW_PBE V 08Apr2002                   </c></rc>
    <rc><c>   3</c><c>Fe</c><c>     55.84700000</c><c>      8.00000000</c><c>  PAW_PBE Fe 06Sep2000                  </c></rc>
   </set>
  </array>
 </atominfo>
 <structure name="initialpos" >
  <crystal>
   <varray name="basis" >
    <v>       6.41512200       0.00000000       0.00000000 </v>
    <v>      -0.97445500       6.54311800       0.00000000 </v>
    <v>       0.97445500       2.17208100       6.17207100 </v>
   </varray>
   <i name="volume">    259.07206444 </i>
   <varray name="rec_basis" >
    <v>       0.15588168       0.02321518      -0.03278072 </v>
    <v>       0.00000000       0.15283233      -0.05378490 </v>
    <v>       0.00000000       0.00000000       0.16202017 </v>
   </varray>
  </crystal>
  <varray name="positions" >
   <v>       0.58824100       0.82795500       0.38185000 </v>
   <v>       0.41175900       0.38185000       0.82795500 </v>
   <v>       0.41175900       0.17204500       0.61815000 </v>
   <v>       0.58824100       0.61815000       0.17204500 </v>
   <v>       0.81794300       0.58436700       0.91680000 </v>
   <v>       0.18205700       0.91680000       0.58436700 </v>
   <v>       0.18205700       0.41563300       0.08320000 </v>
   <v>       0.81794300       0.08320000       0.41563300 </v>
   <v>       0.16996100       0.73936700       0.26063300 </v>
   <v>       0.83003900       0.26063300       0.73936700 </v>
   <v>       0.25166000       0.77491100       0.89431100 </v>
   <v>       0.74834000       0.89431100       0.77491100 </v>
   <v>       0.74834000       0.22508900       0.10568900 </v>
   <v>       0.25166000       0.10568900       0.22508900 </v>
   <v>       0.00000000       0.63485000       0.63485000 </v>
   <v>       0.00000000       0.36515000       0.36515000 </v>
   <v>       0.00000000       0.00000000       0.00000000 </v>
   <v>       0.50000000       0.00000000       0.00000000 </v>
   <v>       0.22341800       0.47321200       0.52678800 </v>
   <v>       0.77658200       0.52678800       0.47321200 </v>
  </varray>
 </structure>
 <calculation>
  <scstep>
   <time name="dav">    1.06    1.06</time>
   <time name="total">    1.11    1.12</time>
   <energy>
    <i name="alphaZ">    552.45260884 </i>
    <i name="ewald">  -5059.49274060 </i>
    <i name="hartreedc">   -952.61160278 </i>
    <i name="XCdc">   -770.04211952 </i>
    <i name="pawpsdc">   5171.05454107 </i>
    <i name="pawaedc">  -4356.08836938 </i>
    <i name="eentropy">     -0.07139537 </i>
    <i name="bandstr">   1405.40799530 </i>
    <i name="atom">   4687.48422623 </i>
    <i name="e_fr_energy">    678.09314379 </i>
    <i name="e_wo_entrp">    678.16453915 </i>
    <i name="e_0_energy">    678.12884147 </i>
   </energy>
  </scstep>
  <scstep>
   <time name="dav">    1.04    1.05</time>
   <time name="total">    1.05    1.05</time>
   <energy>
    <i name="e_fr_energy">    -36.77059627 </i>
    <i name="e_wo_entrp">    -36.71076992 </i>
    <i name="e_0_energy">    -36.74068309 </i>
   </energy>
  </scstep>
  <scstep>
   <time name="dav">    1.57    1.57</time>
   <time name="total">    1.57    1.57</time>
   <energy>
    <i name="e_fr_energy">   -165.24324364 </i>
    <i name="e_wo_entrp">   -165.13330769 </i>
    <i name="e_0_energy">   -165.18827567 </i>
   </energy>
  </scstep>
  <scstep>
   <time name="dav">    1.56    1.56</time>
   <time name="total">    1.56    1.57</time>
   <energy>
    <i name="e_fr_energy">   -180.37508112 </i>
    <i name="e_wo_entrp">   -180.26198676 </i>
    <i name="e_0_energy">   -180.31853394 </i>
   </energy>
  </scstep>
  <scstep>
   <time name="dav">    1.54    1.54</time>
   <time name="total">    1.59    1.60</time>
   <energy>
    <i name="e_fr_energy">   -181.31785966 </i>
    <i name="e_wo_entrp">   -181.20292637 </i>
    <i name="e_0_energy">   -181.26039302 </i>
   </energy>
  </scstep>
  <scstep>
   <time name="dav">    1.81    1.81</time>
   <time name="total">    1.91    1.91</time>
   <energy>
    <i name="e_fr_energy">   -248.44385827 </i>
    <i name="e_wo_entrp">   -248.36621181 </i>
    <i name="e_0_energy">   -248.40503504 </i>
   </energy>
  </scstep>
  <scstep>
   <time name="dav">    1.48    1.48</time>
   <time name="total">    1.59    1.59</time>
   <energy>
    <i name="e_fr_energy">   -164.90017108 </i>
    <i name="e_wo_entrp">   -164.77932254 </i>
    <i name="e_0_energy">   -164.83974681 </i>
   </energy>
  </scstep>
  <scstep>
   <time name="dav">    1.52    1.52</time>
   <time name="total">    1.62    1.62</time>
   <energy>
    <i name="e_fr_energy">   -166.63218755 </i>
    <i name="e_wo_entrp">   -166.49564436 </i>
    <i name="e_0_energy">   -166.56391595 </i>
   </energy>
  </scstep>
  <scstep>
   <time name="dav">    1.66    1.67</time>
   <time name="total">    1.77    1.77</time>
   <energy>
    <i name="e_fr_energy">   -163.42809532 </i>
    <i name="e_wo_entrp">   -163.31905161 </i>
    <i name="e_0_energy">   -163.37357347 </i>
   </energy>
  </scstep>
  <scstep>
   <time name="dav">    1.81    1.81</time>
   <time name="total">    1.92    1.92</time>
   <energy>
    <i name="e_fr_energy">   -159.98155914 </i>
    <i name="e_wo_entrp">   -159.83739125 </i>
    <i name="e_0_energy">   -159.90947519 </i>
   </energy>
  </scstep>
  <scstep>
   <time name="dav">    1.49    1.50</time>
   <time name="total">    1.60    1.60</time>
   <energy>
    <i name="e_fr_energy">   -159.69305661 </i>
    <i name="e_wo_entrp">   -159.56325015 </i>
    <i name="e_0_energy">   -159.62815338 </i>
   </energy>
  </scstep>
  <scstep>
   <time name="dav">    1.56    1.56</time>
   <time name="total">    1.66    1.66</time>
   <energy>
    <i name="e_fr_energy">   -159.47867171 </i>
    <i name="e_wo_entrp">   -159.32479148 </i>
    <i name="e_0_energy">   -159.40173160 </i>
   </energy>
  </scstep>
  <scstep>
   <time name="dav">    1.80    1.80</time>
   <time name="total">    1.90    1.91</time>
   <energy>
    <i name="e_fr_energy">   -159.75819271 </i>
    <i name="e_wo_entrp">   -159.60657999 </i>
    <i name="e_0_energy">   -159.68238635 </i>
   </energy>
  </scstep>
  <scstep>
   <time name="dav">    1.86    1.86</time>
   <time name="total">    1.96    1.97</time>
   <energy>
    <i name="e_fr_energy">   -159.47355935 </i>
    <i name="e_wo_entrp">   -159.32171092 </i>
    <i name="e_0_energy">   -159.39763513 </i>
   </energy>
  </scstep>
  <scstep>
   <time name="dav">    1.75    1.76</time>
   <time name="total">    1.86    1.86</time>
   <energy>
    <i name="e_fr_energy">   -159.40496906 </i>
    <i name="e_wo_entrp">   -159.25557919 </i>
    <i name="e_0_energy">   -159.33027413 </i>
   </energy>
  </scstep>
  <scstep>
   <time name="dav">    1.58    1.58</time>
   <time name="total">    1.68    1.68</time>
   <energy>
    <i name="e_fr_energy">   -159.40767787 </i>
    <i name="e_wo_entrp">   -159.25682155 </i>
    <i name="e_0_energy">   -159.33224971 </i>
   </energy>
  </scstep>
  <scstep>
   <time name="dav">    1.66    1.66</time>
   <time name="total">    1.76    1.76</time>
   <energy>
    <i name="e_fr_energy">   -159.39605555 </i>
    <i name="e_wo_entrp">   -159.24505196 </i>
    <i name="e_0_energy">   -159.32055376 </i>
   </energy>
  </scstep>
  <scstep>
   <time name="dav">    1.52    1.53</time>
   <time name="total">    1.63    1.63</time>
   <energy>
    <i name="e_fr_energy">   -159.39550148 </i>
    <i name="e_wo_entrp">   -159.24386742 </i>
    <i name="e_0_energy">   -159.31968445 </i>
   </energy>
  </scstep>
  <scstep>
   <time name="dav">    1.52    1.53</time>
   <time name="total">    1.63    1.63</time>
   <energy>
    <i name="e_fr_energy">   -159.39526053 </i>
    <i name="e_wo_entrp">   -159.24388228 </i>
    <i name="e_0_energy">   -159.31957140 </i>
   </energy>
  </scstep>
  <scstep>
   <time name="dav">    1.55    1.55</time>
   <time name="total">    1.65    1.65</time>
   <energy>
    <i name="e_fr_energy">   -159.39519126 </i>
    <i name="e_wo_entrp">   -159.24386433 </i>
    <i name="e_0_energy">   -159.31952779 </i>
   </energy>
  </scstep>
  <scstep>
   <time name="dav">    1.04    1.04</time>
   <time name="total">    1.09    1.09</time>
   <energy>
    <i name="alphaZ">    552.45260884 </i>
    <i name="ewald">  -5059.49274060 </i>
    <i name="hartreedc">   -840.00290493 </i>
    <i name="XCdc">   -768.22927220 </i>
    <i name="pawpsdc">   8771.96681949 </i>
    <i name="pawaedc">  -7973.71618513 </i>
    <i name="eentropy">     -0.15125144 </i>
    <i name="bandstr">    470.29351423 </i>
    <i name="atom">   4687.48422623 </i>
    <i name="e_fr_energy">   -159.39518551 </i>
    <i name="e_wo_entrp">   -159.24393407 </i>
    <i name="e_0_energy">   -159.31955979 </i>
   </energy>
  </scstep>
  <structure>
   <crystal>
    <varray name="basis" >
     <v>       6.41512200       0.00000000       0.00000000 </v>
     <v>      -0.97445500       6.54311800       0.00000000 </v>
     <v>       0.97445500       2.17208100       6.17207100 </v>
    </varray>
    <i name="volume">    259.07206444 </i>
    <varray name="rec_basis" >
     <v>       0.15588168       0.02321518      -0.03278072 </v>
     <v>       0.00000000       0.15283233      -0.05378490 </v>
     <v>       0.00000000       0.00000000       0.16202017 </v>
    </varray>
   </crystal>
   <varray name="positions" >
    <v>       0.58824100       0.82795500       0.38185000 </v>
    <v>       0.41175900       0.38185000       0.82795500 </v>
    <v>       0.41175900       0.17204500       0.61815000 </v>
    <v>       0.58824100       0.61815000       0.17204500 </v>
    <v>       0.81794300       0.58436700       0.91680000 </v>
    <v>       0.18205700       0.91680000       0.58436700 </v>
    <v>       0.18205700       0.41563300       0.08320000 </v>
    <v>       0.81794300       0.08320000       0.41563300 </v>
    <v>       0.16996100       0.73936700       0.26063300 </v>
    <v>       0.83003900       0.26063300       0.73936700 </v>
    <v>       0.25166000       0.77491100       0.89431100 </v>
    <v>       0.74834000       0.89431100       0.77491100 </v>
    <v>       0.74834000       0.22508900       0.10568900 </v>
    <v>       0.25166000       0.10568900       0.22508900 </v>
    <v>       0.00000000       0.63485000       0.63485000 </v>
    <v>       0.00000000       0.36515000       0.36515000 </v>
    <v>       0.00000000       0.00000000       0.00000000 </v>
    <v>       0.50000000       0.00000000       0.00000000 </v>
    <v>       0.22341800       0.47321200       0.52678800 </v>
    <v>       0.77658200       0.52678800       0.47321200 </v>
   </varray>
  </structure>
  <varray name="forces" >
   <v>      -1.13994324      -0.10164951       0.73960179 </v>
   <v>       1.13994324       0.66391641      -0.34140650 </v>
   <v>       1.13994324       0.10164951      -0.73960179 </v>
   <v>      -1.13994324      -0.66391641       0.34140650 </v>
   <v>      -0.20418246       0.41366606       2.57243634 </v>
   <v>       0.20418246       2.56388080      -0.46374891 </v>
   <v>       0.20418246      -0.41366606      -2.57243634 </v>
   <v>      -0.20418246      -2.56388080       0.46374891 </v>
   <v>      -1.07160261       0.67088828      -0.94731984 </v>
   <v>       1.07160261      -0.67088828       0.94731984 </v>
   <v>       1.64139856      -0.27282370      -0.44169210 </v>
   <v>      -1.64139856      -0.50721231      -0.11072645 </v>
   <v>      -1.64139856       0.27282370       0.44169210 </v>
   <v>       1.64139856       0.50721231       0.11072645 </v>
   <v>       0.00000000      -0.01376096      -0.00974546 </v>
   <v>       0.00000000       0.01376096       0.00974546 </v>
   <v>       0.00000000      -0.00000000      -0.00000000 </v>
   <v>       0.00000000      -0.00000000      -0.00000000 </v>
   <v>       4.72853890      -0.62728852       0.88575532 </v>
   <v>      -4.72853890       0.62728852      -0.88575532 </v>
  </varray>
  <varray name="stress" >
   <v>      75.89741036      19.33832564     -27.30645356 </v>
   <v>      19.33832566     246.98647166     -10.45347655 </v>
   <v>     -27.30645360     -10.45347655     254.34408710 </v>
  </varray>
  <energy>
   <i name="e_fr_energy">   -159.39518551 </i>
   <i name="e_wo_entrp">   -159.31955979 </i>
   <i name="e_0_energy">     -0.15125144 </i>
  </energy>
  <time name="totalsc">   36.17   36.22</time>
 </calculation>
 <calculation>
  <scstep>
   <time name="dav">    1.12    1.12</time>
   <time name="total">    1.22    1.22</time>
   <energy>
    <i name="alphaZ">    445.32226926 </i>
    <i name="ewald">  -4788.77460976 </i>
    <i name="hartreedc">   -732.04638057 </i>
    <i name="XCdc">   -779.14988197 </i>
    <i name="pawpsdc">   8772.35754352 </i>
    <i name="pawaedc">  -7974.11109941 </i>
    <i name="eentropy">     -0.18121786 </i>
    <i name="bandstr">    184.48639218 </i>
    <i name="atom">   4687.48422623 </i>
    <i name="e_fr_energy">   -184.61275839 </i>
    <i name="e_wo_entrp">   -184.43154053 </i>
    <i name="e_0_energy">   -184.52214946 </i>
   </energy>
  </scstep>
  <scstep>
   <time name="dav">    1.61    1.61</time>
   <time name="total">    1.71    1.71</time>
   <energy>
    <i name="e_fr_energy">   -398.05093897 </i>
    <i name="e_wo_entrp">   -397.97551731 </i>
    <i name="e_0_energy">   -398.01322814 </i>
   </energy>
  </scstep>
  <scstep>
   <time name="dav">    1.67    1.67</time>
   <time name="total">    1.77    1.77</time>
   <energy>
    <i name="e_fr_energy">   -172.75340164 </i>
    <i name="e_wo_entrp">   -172.64450282 </i>
    <i name="e_0_energy">   -172.69895223 </i>
   </energy>
  </scstep>
  <scstep>
   <time name="dav">    1.73    1.73</time>
   <time name="total">    1.83    1.83</time>
   <energy>
    <i name="e_fr_energy">   -173.99699486 </i>
    <i name="e_wo_entrp">   -173.85883679 </i>
    <i name="e_0_energy">   -173.92791583 </i>
   </energy>
  </scstep>
  <scstep>
   <time name="dav">    1.74    1.74</time>
   <time name="total">    1.84    1.84</time>
   <energy>
    <i name="e_fr_energy">   -167.86606072 </i>
    <i name="e_wo_entrp">   -167.72369335 </i>
    <i name="e_0_energy">   -167.79487703 </i>
   </energy>
  </scstep>
  <scstep>
   <time name="dav">    1.76    1.76</time>
   <time name="total">    1.86    1.86</time>
   <energy>
    <i name="e_fr_energy">   -165.26530477 </i>
    <i name="e_wo_entrp">   -165.09811023 </i>
    <i name="e_0_energy">   -165.18170750 </i>
   </energy>
  </scstep>
  <scstep>
   <time name="dav">    1.72    1.72</time>
   <time name="total">    1.82    1.82</time>
   <energy>
    <i name="e_fr_energy">   -164.16414882 </i>
    <i name="e_wo_entrp">   -163.99727557 </i>
    <i name="e_0_energy">   -164.08071220 </i>
   </energy>
  </scstep>
  <scstep>
   <time name="dav">    1.53    1.53</time>
   <time name="total">    1.63    1.63</time>
   <energy>
    <i name="e_fr_energy">   -163.72145103 </i>
    <i name="e_wo_entrp">   -163.55030163 </i>
    <i name="e_0_energy">   -163.63587633 </i>
   </energy>
  </scstep>
  <scstep>
   <time name="dav">    1.54    1.55</time>
   <time name="total">    1.65    1.65</time>
   <energy>
    <i name="e_fr_energy">   -163.03363733 </i>
    <i name="e_wo_entrp">   -162.83859764 </i>
    <i name="e_0_energy">   -162.93611748 </i>
   </energy>
  </scstep>
  <scstep>
   <time name="dav">    1.77    1.77</time>
   <time name="total">    1.87    1.87</time>
   <energy>
    <i name="e_fr_energy">   -163.05308422 </i>
    <i name="e_wo_entrp">   -162.87704950 </i>
    <i name="e_0_energy">   -162.96506686 </i>
   </energy>
  </scstep>
  <scstep>
   <time name="dav">    1.81    1.81</time>
   <time name="total">    1.91    1.91</time>
   <energy>
    <i name="e_fr_energy">   -162.83105786 </i>
    <i name="e_wo_entrp">   -162.62603384 </i>
    <i name="e_0_energy">   -162.72854585 </i>
   </energy>
  </scstep>
  <scstep>
   <time name="dav">    1.58    1.58</time>
   <time name="total">    1.68    1.68</time>
   <energy>
    <i name="e_fr_energy">   -162.73725122 </i>
    <i name="e_wo_entrp">   -162.54175435 </i>
    <i name="e_0_energy">   -162.63950279 </i>
   </energy>
  </scstep>
  <scstep>
   <time name="dav">    1.71    1.71</time>
   <time name="total">    1.82    1.82</time>
   <energy>
    <i name="e_fr_energy">   -162.11570133 </i>
    <i name="e_wo_entrp">   -161.91538617 </i>
    <i name="e_0_energy">   -162.01554375 </i>
   </energy>
  </scstep>
  <scstep>
   <time name="dav">    1.57    1.57</time>
   <time name="total">    1.68    1.68</time>
   <energy>
    <i name="e_fr_energy">   -162.09755266 </i>
    <i name="e_wo_entrp">   -161.89400705 </i>
    <i name="e_0_energy">   -161.99577986 </i>
   </energy>
  </scstep>
  <scstep>
   <time name="dav">    1.66    1.66</time>
   <time name="total">    1.76    1.77</time>
   <energy>
    <i name="e_fr_energy">   -162.06463897 </i>
    <i name="e_wo_entrp">   -161.86197969 </i>
    <i name="e_0_energy">   -161.96330933 </i>
   </energy>
  </scstep>
  <scstep>
   <time name="dav">    1.72    1.72</time>
   <time name="total">    1.82    1.82</time>
   <energy>
    <i name="e_fr_energy">   -162.05288066 </i>
    <i name="e_wo_entrp">   -161.84952497 </i>
    <i name="e_0_energy">   -161.95120282 </i>
   </energy>
  </scstep>
  <scstep>
   <time name="dav">    1.80    1.81</time>
   <time name="total">    1.91    1.91</time>
   <energy>
    <i name="e_fr_energy">   -162.04244809 </i>
    <i name="e_wo_entrp">   -161.83873061 </i>
    <i name="e_0_energy">   -161.94058935 </i>
   </energy>
  </scstep>
  <scstep>
   <time name="dav">    1.61    1.61</time>
   <time name="total">    1.71    1.72</time>
   <energy>
    <i name="e_fr_energy">   -162.04102039 </i>
    <i name="e_wo_entrp">   -161.83748830 </i>
    <i name="e_0_energy">   -161.93925434 </i>
   </energy>
  </scstep>
  <scstep>
   <time name="dav">    1.78    1.79</time>
   <time name="total">    1.89    1.89</time>
   <energy>
    <i name="e_fr_energy">   -162.04086606 </i>
    <i name="e_wo_entrp">   -161.83739011 </i>
    <i name="e_0_energy">   -161.93912808 </i>
   </energy>
  </scstep>
  <scstep>
   <time name="dav">    1.50    1.50</time>
   <time name="total">    1.60    1.60</time>
   <energy>
    <i name="e_fr_energy">   -162.04084953 </i>
    <i name="e_wo_entrp">   -161.83738136 </i>
    <i name="e_0_energy">   -161.93911544 </i>
   </energy>
  </scstep>
  <scstep>
   <time name="dav">    0.99    0.99</time>
   <time name="total">    1.04    1.04</time>
   <energy>
    <i name="alphaZ">    445.32226926 </i>
    <i name="ewald">  -4788.77460976 </i>
    <i name="hartreedc">   -852.65456485 </i>
    <i name="XCdc">   -777.03087287 </i>
    <i name="pawpsdc">   6805.57195939 </i>
    <i name="pawaedc">  -5994.54411587 </i>
    <i name="eentropy">     -0.20346633 </i>
    <i name="bandstr">    312.78832322 </i>
    <i name="atom">   4687.48422623 </i>
    <i name="e_fr_energy">   -162.04085159 </i>
    <i name="e_wo_entrp">   -161.83738526 </i>
    <i name="e_0_energy">   -161.93911842 </i>
   </energy>
  </scstep>
  <structure>
   <crystal>
    <varray name="basis" >
     <v>       6.60502992       0.04838770      -0.06832528 </v>
     <v>      -0.95394881       7.16609958      -0.01629962 </v>
     <v>       0.95394880       2.36351328       6.76513550 </v>
    </varray>
    <i name="volume">    321.39654304 </i>
    <varray name="rec_basis" >
     <v>       0.15096043       0.02003147      -0.02828519 </v>
     <v>      -0.00152098       0.13923330      -0.04842901 </v>
     <v>       0.00152098       0.00053777       0.14741435 </v>
    </varray>
   </crystal>
   <varray name="positions" >
    <v>       0.57838499       0.82528647       0.38763094 </v>
    <v>       0.42161501       0.38763094       0.82528647 </v>
    <v>       0.42161501       0.17471353       0.61236906 </v>
    <v>       0.57838499       0.61236906       0.17471353 </v>
    <v>       0.81280268       0.58074221       0.93690689 </v>
    <v>       0.18719732       0.93690689       0.58074221 </v>
    <v>       0.18719732       0.41925779       0.06309311 </v>
    <v>       0.81280268       0.06309311       0.41925779 </v>
    <v>       0.16415188       0.74677152       0.25322848 </v>
    <v>       0.83584812       0.25322848       0.74677152 </v>
    <v>       0.26439651       0.77404553       0.89085861 </v>
    <v>       0.73560349       0.89085861       0.77404553 </v>
    <v>       0.73560349       0.22595447       0.10914139 </v>
    <v>       0.26439651       0.10914139       0.22595447 </v>
    <v>       0.00000000       0.63477383       0.63477383 </v>
    <v>       0.00000000       0.36522617       0.36522617 </v>
    <v>       0.00000000      -0.00000000      -0.00000000 </v>
    <v>       0.50000000      -0.00000000      -0.00000000 </v>
    <v>       0.25687400       0.46628869       0.53371131 </v>
    <v>       0.74312600       0.53371131       0.46628869 </v>
   </varray>
  </structure>
  <varray name="forces" >
   <v>      -0.68773212       0.30239987       0.16532853 </v>
   <v>       0.68773212       0.25633901       0.23036823 </v>
   <v>       0.68773212      -0.30239987      -0.16532853 </v>
   <v>      -0.68773212      -0.25633901      -0.23036823 </v>
   <v>       0.68662568       0.39942058       0.51181640 </v>
   <v>      -0.68662568       0.61538562       0.20686552 </v>
   <v>      -0.68662568      -0.39942058      -0.51181640 </v>
   <v>       0.68662568      -0.61538562      -0.20686552 </v>
   <v>      -0.60220146       0.09211741      -0.13007329 </v>
   <v>       0.60220146      -0.09211741       0.13007329 </v>
   <v>       0.51368312       0.33909984      -0.17449251 </v>
   <v>      -0.51368312      -0.05202836       0.37779545 </v>
   <v>      -0.51368312      -0.33909984       0.17449251 </v>
   <v>       0.51368312       0.05202836      -0.37779545 </v>
   <v>       0.00000000      -0.86011009      -0.60912672 </v>
   <v>      -0.00000000       0.86011009       0.60912672 </v>
   <v>      -0.00000000       0.00000000       0.00000000 </v>
   <v>      -0.00000000       0.00000000       0.00000000 </v>
   <v>       0.89809831      -0.00211685       0.00298908 </v>
   <v>      -0.89809831       0.00211685      -0.00298908 </v>
  </varray>
  <varray name="stress" >
   <v>    -228.01597737      11.31329688     -15.97480678 </v>
   <v>      11.31329684    -169.12825926     -11.14405485 </v>
   <v>     -15.97480673     -11.14405485    -161.28462257 </v>
  </varray>
  <energy>
   <i name="e_fr_energy">   -162.04085159 </i>
   <i name="e_wo_entrp">   -161.93911842 </i>
   <i name="e_0_energy">     -0.20346633 </i>
  </energy>
  <time name="totalsc">   38.08   38.13</time>
 </calculation>
 <calculation>
  <scstep>
   <time name="dav">    1.14    1.14</time>
   <time name="total">    1.25    1.25</time>
   <energy>
    <i name="alphaZ">    482.29016247 </i>
    <i name="ewald">  -4897.55977022 </i>
    <i name="hartreedc">   -890.36896924 </i>
    <i name="XCdc">   -772.21111129 </i>
    <i name="pawpsdc">   6805.90301797 </i>
    <i name="pawaedc">  -5994.87303453 </i>
    <i name="eentropy">     -0.13523903 </i>
    <i name="bandstr">    410.73050602 </i>
    <i name="atom">   4687.48422623 </i>
    <i name="e_fr_energy">   -168.74021162 </i>
    <i name="e_wo_entrp">   -168.60497259 </i>
    <i name="e_0_energy">   -168.67259210 </i>
   </energy>
  </scstep>
  <scstep>
   <time name="dav">    1.74    1.74</time>
   <time name="total">    1.84    1.84</time>
   <energy>
    <i name="e_fr_energy">   -251.55008738 </i>
    <i name="e_wo_entrp">   -251.40538592 </i>
    <i name="e_0_energy">   -251.47773665 </i>
   </energy>
  </scstep>
  <scstep>
   <time name="dav">    1.62    1.63</time>
   <time name="total">    1.72    1.73</time>
   <energy>
    <i name="e_fr_energy">   -181.55782972 </i>
    <i name="e_wo_entrp">   -181.39120575 </i>
    <i name="e_0_energy">   -181.47451774 </i>
   </energy>
  </scstep>
  <scstep>
   <time name="dav">    1.78    1.79</time>
   <time name="total">    1.88    1.89</time>
   <energy>
    <i name="e_fr_energy">   -168.07769765 </i>
    <i name="e_wo_entrp">   -167.92854704 </i>
    <i name="e_0_energy">   -168.00312234 </i>
   </energy>
  </scstep>
  <scstep>
   <time name="dav">    1.70    1.70</time>
   <time name="total">    1.80    1.80</time>
   <energy>
    <i name="e_fr_energy">   -163.49094057 </i>
    <i name="e_wo_entrp">   -163.31655970 </i>
    <i name="e_0_energy">   -163.40375014 </i>
   </energy>
  </scstep>
  <scstep>
   <time name="dav">    1.76    1.76</time>
   <time name="total">    1.86    1.87</time>
   <energy>
    <i name="e_fr_energy">   -163.98306539 </i>
    <i name="e_wo_entrp">   -163.80153929 </i>
    <i name="e_0_energy">   -163.89230234 </i>
   </energy>
  </scstep>
  <scstep>
   <time name="dav">    1.76    1.77</time>
   <time name="total">    1.87    1.87</time>
   <energy>
    <i name="e_fr_energy">   -163.74276907 </i>
    <i name="e_wo_entrp">   -163.54687186 </i>
    <i name="e_0_energy">   -163.64482046 </i>
   </energy>
  </scstep>
  <scstep>
   <time name="dav">    1.67    1.67</time>
   <time name="total">    1.77    1.78</time>
   <energy>
    <i name="e_fr_energy">   -163.33360247 </i>
    <i name="e_wo_entrp">   -163.13932812 </i>
    <i name="e_0_energy">   -163.23646530 </i>
   </energy>
  </scstep>
  <scstep>
   <time name="dav">    1.50    1.50</time>
   <time name="total">    1.60    1.60</time>
   <energy>
    <i name="e_fr_energy">   -163.30973088 </i>
    <i name="e_wo_entrp">   -163.11901826 </i>
    <i name="e_0_energy">   -163.21437457 </i>
   </energy>
  </scstep>
  <scstep>
   <time name="dav">    1.71    1.71</time>
   <time name="total">    1.81    1.82</time>
   <energy>
    <i name="e_fr_energy">   -163.27889803 </i>
    <i name="e_wo_entrp">   -163.08572634 </i>
    <i name="e_0_energy">   -163.18231219 </i>
   </energy>
  </scstep>
  <scstep>
   <time name="dav">    1.53    1.53</time>
   <time name="total">    1.63    1.63</time>
   <energy>
    <i name="e_fr_energy">   -163.26830445 </i>
    <i name="e_wo_entrp">   -163.07105094 </i>
    <i name="e_0_energy">   -163.16967769 </i>
   </energy>
  </scstep>
  <scstep>
   <time name="dav">    1.75    1.75</time>
   <time name="total">    1.85    1.86</time>
   <energy>
    <i name="e_fr_energy">   -163.26059429 </i>
    <i name="e_wo_entrp">   -163.06544670 </i>
    <i name="e_0_energy">   -163.16302050 </i>
   </energy>
  </scstep>
  <scstep>
   <time name="dav">    1.55    1.55</time>
   <time name="total">    1.66    1.66</time>
   <energy>
    <i name="e_fr_energy">   -163.25855970 </i>
    <i name="e_wo_entrp">   -163.06476617 </i>
    <i name="e_0_energy">   -163.16166294 </i>
   </energy>
  </scstep>
  <scstep>
   <time name="dav">    1.75    1.76</time>
   <time name="total">    1.86    1.86</time>
   <energy>
    <i name="e_fr_energy">   -163.25417396 </i>
    <i name="e_wo_entrp">   -163.05958198 </i>
    <i name="e_0_energy">   -163.15687797 </i>
   </energy>
  </scstep>
  <scstep>
   <time name="dav">    1.60    1.60</time>
   <time name="total">    1.69    1.70</time>
   <energy>
    <i name="e_fr_energy">   -163.25330907 </i>
    <i name="e_wo_entrp">   -163.05911892 </i>
    <i name="e_0_energy">   -163.15621400 </i>
   </energy>
  </scstep>
  <scstep>
   <time name="dav">    1.64    1.64</time>
   <time name="total">    1.74    1.75</time>
   <energy>
    <i name="e_fr_energy">   -163.25304217 </i>
    <i name="e_wo_entrp">   -163.05884624 </i>
    <i name="e_0_energy">   -163.15594420 </i>
   </energy>
  </scstep>
  <scstep>
   <time name="dav">    1.48    1.48</time>
   <time name="total">    1.58    1.58</time>
   <energy>
    <i name="e_fr_energy">   -163.25301152 </i>
    <i name="e_wo_entrp">   -163.05888764 </i>
    <i name="e_0_energy">   -163.15594958 </i>
   </energy>
  </scstep>
  <scstep>
   <time name="dav">    1.00    1.00</time>
   <time name="total">    1.05    1.05</time>
   <energy>
    <i name="alphaZ">    482.29016247 </i>
    <i name="ewald">  -4897.55977022 </i>
    <i name="hartreedc">   -836.81949530 </i>
    <i name="XCdc">   -773.74540891 </i>
    <i name="pawpsdc">   7385.01096016 </i>
    <i name="pawaedc">  -6578.36269133 </i>
    <i name="eentropy">     -0.19413578 </i>
    <i name="bandstr">    368.64313903 </i>
    <i name="atom">   4687.48422623 </i>
    <i name="e_fr_energy">   -163.25301366 </i>
    <i name="e_wo_entrp">   -163.05887789 </i>
    <i name="e_0_energy">   -163.15594578 </i>
   </energy>
  </scstep>
  <structure>
   <crystal>
    <varray name="basis" >
     <v>       6.53286375       0.03000008      -0.04236126 </v>
     <v>      -0.96174129       6.92936276      -0.01010567 </v>
     <v>       0.96174128       2.29076784       6.53976736 </v>
    </varray>
    <i name="volume">    296.76126327 </i>
    <varray name="rec_basis" >
     <v>       0.15278130       0.02116127      -0.02988052 </v>
     <v>      -0.00098811       0.14410287      -0.05033144 </v>
     <v>       0.00098811       0.00035975       0.15263931 </v>
    </varray>
   </crystal>
   <varray name="positions" >
    <v>       0.58196060       0.82617078       0.38566497 </v>
    <v>       0.41803940       0.38566497       0.82617078 </v>
    <v>       0.41803940       0.17382922       0.61433503 </v>
    <v>       0.58196060       0.61433503       0.17382922 </v>
    <v>       0.81454975       0.58196451       0.92995656 </v>
    <v>       0.18545025       0.92995656       0.58196451 </v>
    <v>       0.18545025       0.41803549       0.07004344 </v>
    <v>       0.81454975       0.07004344       0.41803549 </v>
    <v>       0.16637993       0.74418815       0.25581185 </v>
    <v>       0.83362007       0.25581185       0.74418815 </v>
    <v>       0.25972512       0.77439553       0.89200919 </v>
    <v>       0.74027488       0.89200919       0.77439553 </v>
    <v>       0.74027488       0.22560447       0.10799081 </v>
    <v>       0.25972512       0.10799081       0.22560447 </v>
    <v>       0.00000000       0.63480030       0.63480030 </v>
    <v>      -0.00000000       0.36519970       0.36519970 </v>
    <v>       0.00000000      -0.00000000      -0.00000000 </v>
    <v>       0.50000000      -0.00000000      -0.00000000 </v>
    <v>       0.24447751       0.46880808       0.53119192 </v>
    <v>       0.75552249       0.53119192       0.46880808 </v>
   </varray>
  </structure>
  <varray name="forces" >
   <v>      -0.87892599       0.29438532       0.27869996 </v>
   <v>       0.87892599       0.36062082       0.18517291 </v>
   <v>       0.87892599      -0.29438532      -0.27869996 </v>
   <v>      -0.87892599      -0.36062082      -0.18517291 </v>
   <v>       0.45249605       0.44141385       1.13369868 </v>
   <v>      -0.45249605       1.21594242       0.04003478 </v>
   <v>      -0.45249605      -0.44141385      -1.13369868 </v>
   <v>       0.45249605      -1.21594242      -0.04003478 </v>
   <v>      -0.79930398       0.12241964      -0.17286121 </v>
   <v>       0.79930398      -0.12241964       0.17286121 </v>
   <v>       0.84607952       0.18405627      -0.30071070 </v>
   <v>      -0.84607952      -0.22255789       0.27344400 </v>
   <v>      -0.84607952      -0.18405627       0.30071070 </v>
   <v>       0.84607952       0.22255789      -0.27344400 </v>
   <v>       0.00000000      -0.89948699      -0.63701329 </v>
   <v>      -0.00000000       0.89948699       0.63701329 </v>
   <v>      -0.00000000       0.00000000       0.00000000 </v>
   <v>      -0.00000000       0.00000000       0.00000000 </v>
   <v>       1.67526433      -0.01831384       0.02585984 </v>
   <v>      -1.67526433       0.01831384      -0.02585984 </v>
  </varray>
  <varray name="stress" >
   <v>    -144.43839422      13.57999449     -19.17547037 </v>
   <v>      13.57999447     -47.37237062     -12.79832598 </v>
   <v>     -19.17547034     -12.79832598     -38.36437649 </v>
  </varray>
  <energy>
   <i name="e_fr_energy">   -163.25301366 </i>
   <i name="e_wo_entrp">   -163.15594578 </i>
   <i name="e_0_energy">     -0.19413578 </i>
  </energy>
  <time name="totalsc">   32.51   32.55</time>
 </calculation>
 <calculation>
  <scstep>
   <time name="dav">    1.02    1.02</time>
   <time name="total">    1.12    1.12</time>
   <energy>
    <i name="alphaZ">    502.62711301 </i>
    <i name="ewald">  -4990.63515705 </i>
    <i name="hartreedc">   -832.88460648 </i>
    <i name="XCdc">   -771.12814131 </i>
    <i name="pawpsdc">   7384.97367189 </i>
    <i name="pawaedc">  -6578.33004060 </i>
    <i name="eentropy">     -0.11151144 </i>
    <i name="bandstr">    430.69634494 </i>
    <i name="atom">   4687.48422623 </i>
    <i name="e_fr_energy">   -167.30810081 </i>
    <i name="e_wo_entrp">   -167.19658937 </i>
    <i name="e_0_energy">   -167.25234509 </i>
   </energy>
  </scstep>
  <scstep>
   <time name="dav">    1.76    1.76</time>
   <time name="total">    1.85    1.86</time>
   <energy>
    <i name="e_fr_energy">   -186.28992299 </i>
    <i name="e_wo_entrp">   -186.18705302 </i>
    <i name="e_0_energy">   -186.23848801 </i>
   </energy>
  </scstep>
  <scstep>
   <time name="dav">    1.68    1.69</time>
   <time name="total">    1.78    1.79</time>
   <energy>
    <i name="e_fr_energy">   -166.16409365 </i>
    <i name="e_wo_entrp">   -166.02581303 </i>
    <i name="e_0_energy">   -166.09495334 </i>
   </energy>
  </scstep>
  <scstep>
   <time name="dav">    1.64    1.64</time>
   <time name="total">    1.73    1.74</time>
   <energy>
    <i name="e_fr_energy">   -166.33617926 </i>
    <i name="e_wo_entrp">   -166.19764305 </i>
    <i name="e_0_energy">   -166.26691115 </i>
   </energy>
  </scstep>
  <scstep>
   <time name="dav">    1.71    1.71</time>
   <time name="total">    1.81    1.82</time>
   <energy>
    <i name="e_fr_energy">   -166.55659620 </i>
    <i name="e_wo_entrp">   -166.40564213 </i>
    <i name="e_0_energy">   -166.48111916 </i>
   </energy>
  </scstep>
  <scstep>
   <time name="dav">    1.55    1.55</time>
   <time name="total">    1.65    1.65</time>
   <energy>
    <i name="e_fr_energy">   -165.89831176 </i>
    <i name="e_wo_entrp">   -165.75906924 </i>
    <i name="e_0_energy">   -165.82869050 </i>
   </energy>
  </scstep>
  <scstep>
   <time name="dav">    1.53    1.53</time>
   <time name="total">    1.62    1.63</time>
   <energy>
    <i name="e_fr_energy">   -165.92532751 </i>
    <i name="e_wo_entrp">   -165.78506873 </i>
    <i name="e_0_energy">   -165.85519812 </i>
   </energy>
  </scstep>
  <scstep>
   <time name="dav">    1.57    1.57</time>
   <time name="total">    1.67    1.67</time>
   <energy>
    <i name="e_fr_energy">   -165.85112361 </i>
    <i name="e_wo_entrp">   -165.71125857 </i>
    <i name="e_0_energy">   -165.78119109 </i>
   </energy>
  </scstep>
  <scstep>
   <time name="dav">    1.55    1.55</time>
   <time name="total">    1.65    1.65</time>
   <energy>
    <i name="e_fr_energy">   -165.83105153 </i>
    <i name="e_wo_entrp">   -165.68869562 </i>
    <i name="e_0_energy">   -165.75987357 </i>
   </energy>
  </scstep>
  <scstep>
   <time name="dav">    1.44    1.44</time>
   <time name="total">    1.54    1.54</time>
   <energy>
    <i name="e_fr_energy">   -165.83034031 </i>
    <i name="e_wo_entrp">   -165.68875311 </i>
    <i name="e_0_energy">   -165.75954671 </i>
   </energy>
  </scstep>
  <scstep>
   <time name="dav">    1.46    1.46</time>
   <time name="total">    1.56    1.56</time>
   <energy>
    <i name="e_fr_energy">   -165.82895566 </i>
    <i name="e_wo_entrp">   -165.68767410 </i>
    <i name="e_0_energy">   -165.75831488 </i>
   </energy>
  </scstep>
  <scstep>
   <time name="dav">    1.59    1.59</time>
   <time name="total">    1.69    1.69</time>
   <energy>
    <i name="e_fr_energy">   -165.82850598 </i>
    <i name="e_wo_entrp">   -165.68677818 </i>
    <i name="e_0_energy">   -165.75764208 </i>
   </energy>
  </scstep>
  <scstep>
   <time name="dav">    1.42    1.42</time>
   <time name="total">    1.52    1.52</time>
   <energy>
    <i name="e_fr_energy">   -165.82853711 </i>
    <i name="e_wo_entrp">   -165.68678659 </i>
    <i name="e_0_energy">   -165.75766185 </i>
   </energy>
  </scstep>
  <scstep>
   <time name="dav">    1.33    1.33</time>
   <time name="total">    1.43    1.43</time>
   <energy>
    <i name="e_fr_energy">   -165.82843283 </i>
    <i name="e_wo_entrp">   -165.68697654 </i>
    <i name="e_0_energy">   -165.75770468 </i>
   </energy>
  </scstep>
  <scstep>
   <time name="dav">    1.04    1.04</time>
   <time name="total">    1.13    1.13</time>
   <energy>
    <i name="e_fr_energy">   -165.82842171 </i>
    <i name="e_wo_entrp">   -165.68694534 </i>
    <i name="e_0_energy">   -165.75768352 </i>
   </energy>
  </scstep>
  <scstep>
   <time name="dav">    0.66    0.66</time>
   <time name="total">    0.71    0.76</time>
   <energy>
    <i name="alphaZ">    502.62711301 </i>
    <i name="ewald">  -4990.63515705 </i>
    <i name="hartreedc">   -799.59398763 </i>
    <i name="XCdc">   -772.20466836 </i>
    <i name="pawpsdc">   7537.74130395 </i>
    <i name="pawaedc">  -6732.61588839 </i>
    <i name="eentropy">     -0.14150725 </i>
    <i name="bandstr">    401.51014527 </i>
    <i name="atom">   4687.48422623 </i>
    <i name="e_fr_energy">   -165.82842021 </i>
    <i name="e_wo_entrp">   -165.68691296 </i>
    <i name="e_0_energy">   -165.75766658 </i>
   </energy>
  </scstep>
  <structure>
   <crystal>
    <varray name="basis" >
     <v>       6.19157639       0.07913994      -0.11174861 </v>
     <v>      -0.85958536       6.95098647      -0.04362175 </v>
     <v>       0.85958535       2.26633068       6.57129097 </v>
    </varray>
    <i name="volume">    284.75391433 </i>
    <varray name="rec_basis" >
     <v>       0.16075570       0.01970505      -0.02782427 </v>
     <v>      -0.00271572       0.14322088      -0.04903930 </v>
     <v>       0.00271572       0.00128583       0.15137840 </v>
    </varray>
   </crystal>
   <varray name="positions" >
    <v>       0.57352601       0.82687282       0.38885354 </v>
    <v>       0.42647399       0.38885354       0.82687282 </v>
    <v>       0.42647399       0.17312718       0.61114646 </v>
    <v>       0.57352601       0.61114646       0.17312718 </v>
    <v>       0.81535896       0.58140956       0.94235767 </v>
    <v>       0.18464104       0.94235767       0.58140956 </v>
    <v>       0.18464104       0.41859044       0.05764233 </v>
    <v>       0.81535896       0.05764233       0.41859044 </v>
    <v>       0.15984317       0.74712369       0.25287631 </v>
    <v>       0.84015683       0.25287631       0.74712369 </v>
    <v>       0.26912634       0.77599319       0.88922115 </v>
    <v>       0.73087366       0.88922115       0.77599319 </v>
    <v>       0.73087366       0.22400681       0.11077885 </v>
    <v>       0.26912634       0.11077885       0.22400681 </v>
    <v>       0.00000000       0.63043387       0.63043387 </v>
    <v>      -0.00000000       0.36956613       0.36956613 </v>
    <v>       0.00000000       0.00000000       0.00000000 </v>
    <v>       0.50000000       0.00000000       0.00000000 </v>
    <v>       0.26393881       0.46690096       0.53309904 </v>
    <v>       0.73606119       0.53309904       0.46690096 </v>
   </varray>
  </structure>
  <varray name="forces" >
   <v>      -0.82595362       0.49666110       0.42287166 </v>
   <v>       0.82595362       0.56376514       0.32811820 </v>
   <v>       0.82595362      -0.49666110      -0.42287166 </v>
   <v>      -0.82595362      -0.56376514      -0.32811820 </v>
   <v>       1.00199718       0.29699400       0.43305643 </v>
   <v>      -1.00199718       0.50709001       0.13639283 </v>
   <v>      -1.00199718      -0.29699400      -0.43305643 </v>
   <v>       1.00199718      -0.50709001      -0.13639283 </v>
   <v>      -1.02563893       0.12680476      -0.17905315 </v>
   <v>       1.02563893      -0.12680476       0.17905315 </v>
   <v>       0.57665705      -0.11320497      -0.26081985 </v>
   <v>      -0.57665705      -0.28360926      -0.02020249 </v>
   <v>      -0.57665705       0.11320497       0.26081985 </v>
   <v>       0.57665705       0.28360926       0.02020249 </v>
   <v>       0.00000000      -0.19531952      -0.13832454 </v>
   <v>      -0.00000000       0.19531952       0.13832454 </v>
   <v>      -0.00000000      -0.00000000      -0.00000000 </v>
   <v>      -0.00000000      -0.00000000      -0.00000000 </v>
   <v>       1.32623584       0.10353890      -0.14620088 </v>
   <v>      -1.32623584      -0.10353890       0.14620088 </v>
  </varray>
  <varray name="stress" >
   <v>    -101.45461602       5.06285313      -7.14894175 </v>
   <v>       5.06285315     -21.98329386     -11.09783536 </v>
   <v>      -7.14894179     -11.09783536     -14.17217403 </v>
  </varray>
  <energy>
   <i name="e_fr_energy">   -165.82842021 </i>
   <i name="e_wo_entrp">   -165.75766658 </i>
   <i name="e_0_energy">     -0.14150725 </i>
  </energy>
  <time name="totalsc">   26.42   26.50</time>
 </calculation>
 <calculation>
  <scstep>
   <time name="dav">    0.91    0.91</time>
   <time name="total">    1.01    1.01</time>
   <energy>
    <i name="alphaZ">    531.68894057 </i>
    <i name="ewald">  -5083.24995658 </i>
    <i name="hartreedc">   -818.72478796 </i>
    <i name="XCdc">   -768.61084142 </i>
    <i name="pawpsdc">   7537.75852527 </i>
    <i name="pawaedc">  -6732.62829626 </i>
    <i name="eentropy">     -0.09966677 </i>
    <i name="bandstr">    477.45401955 </i>
    <i name="atom">   4687.48422623 </i>
    <i name="e_fr_energy">   -168.92783738 </i>
    <i name="e_wo_entrp">   -168.82817061 </i>
    <i name="e_0_energy">   -168.87800400 </i>
   </energy>
  </scstep>
  <scstep>
   <time name="dav">    1.01    1.01</time>
   <time name="total">    1.08    1.09</time>
   <energy>
    <i name="e_fr_energy">   -191.34843708 </i>
    <i name="e_wo_entrp">   -191.25077855 </i>
    <i name="e_0_energy">   -191.29960782 </i>
   </energy>
  </scstep>
  <scstep>
   <time name="dav">    0.95    0.95</time>
   <time name="total">    1.00    1.00</time>
   <energy>
    <i name="e_fr_energy">   -167.80342245 </i>
    <i name="e_wo_entrp">   -167.67855896 </i>
    <i name="e_0_energy">   -167.74099070 </i>
   </energy>
  </scstep>
  <scstep>
   <time name="dav">    0.94    0.94</time>
   <time name="total">    0.99    0.99</time>
   <energy>
    <i name="e_fr_energy">   -167.96917225 </i>
    <i name="e_wo_entrp">   -167.85184910 </i>
    <i name="e_0_energy">   -167.91051068 </i>
   </energy>
  </scstep>
  <scstep>
   <time name="dav">    0.93    0.93</time>
   <time name="total">    0.98    0.98</time>
   <energy>
    <i name="e_fr_energy">   -167.96557292 </i>
    <i name="e_wo_entrp">   -167.84647081 </i>
    <i name="e_0_energy">   -167.90602186 </i>
   </energy>
  </scstep>
  <scstep>
   <time name="dav">    0.96    0.96</time>
   <time name="total">    1.02    1.02</time>
   <energy>
    <i name="e_fr_energy">   -167.35855842 </i>
    <i name="e_wo_entrp">   -167.25417771 </i>
    <i name="e_0_energy">   -167.30636806 </i>
   </energy>
  </scstep>
  <scstep>
   <time name="dav">    0.97    0.97</time>
   <time name="total">    1.02    1.02</time>
   <energy>
    <i name="e_fr_energy">   -167.45357800 </i>
    <i name="e_wo_entrp">   -167.32900588 </i>
    <i name="e_0_energy">   -167.39129194 </i>
   </energy>
  </scstep>
  <scstep>
   <time name="dav">    0.82    0.82</time>
   <time name="total">    0.87    0.87</time>
   <energy>
    <i name="e_fr_energy">   -167.25012858 </i>
    <i name="e_wo_entrp">   -167.12928293 </i>
    <i name="e_0_energy">   -167.18970575 </i>
   </energy>
  </scstep>
  <scstep>
   <time name="dav">    0.82    0.82</time>
   <time name="total">    0.87    0.87</time>
   <energy>
    <i name="e_fr_energy">   -167.25353687 </i>
    <i name="e_wo_entrp">   -167.13495570 </i>
    <i name="e_0_energy">   -167.19424629 </i>
   </energy>
  </scstep>
  <scstep>
   <time name="dav">    0.96    0.96</time>
   <time name="total">    1.02    1.02</time>
   <energy>
    <i name="e_fr_energy">   -167.24321453 </i>
    <i name="e_wo_entrp">   -167.12510393 </i>
    <i name="e_0_energy">   -167.18415923 </i>
   </energy>
  </scstep>
  <scstep>
   <time name="dav">    0.94    0.94</time>
   <time name="total">    0.99    0.99</time>
   <energy>
    <i name="e_fr_energy">   -167.24596986 </i>
    <i name="e_wo_entrp">   -167.12759505 </i>
    <i name="e_0_energy">   -167.18678246 </i>
   </energy>
  </scstep>
  <scstep>
   <time name="dav">    0.92    0.92</time>
   <time name="total">    0.97    0.97</time>
   <energy>
    <i name="e_fr_energy">   -167.24269532 </i>
    <i name="e_wo_entrp">   -167.12408484 </i>
    <i name="e_0_energy">   -167.18339008 </i>
   </energy>
  </scstep>
  <scstep>
   <time name="dav">    0.89    0.89</time>
   <time name="total">    0.94    0.94</time>
   <energy>
    <i name="e_fr_energy">   -167.24266035 </i>
    <i name="e_wo_entrp">   -167.12396693 </i>
    <i name="e_0_energy">   -167.18331364 </i>
   </energy>
  </scstep>
  <scstep>
   <time name="dav">    0.90    0.90</time>
   <time name="total">    0.96    0.96</time>
   <energy>
    <i name="e_fr_energy">   -167.24251651 </i>
    <i name="e_wo_entrp">   -167.12415235 </i>
    <i name="e_0_energy">   -167.18333443 </i>
   </energy>
  </scstep>
  <scstep>
   <time name="dav">    0.75    0.75</time>
   <time name="total">    0.78    0.78</time>
   <energy>
    <i name="alphaZ">    531.68894057 </i>
    <i name="ewald">  -5083.24995658 </i>
    <i name="hartreedc">   -781.55200017 </i>
    <i name="XCdc">   -769.91600681 </i>
    <i name="pawpsdc">   7901.66016594 </i>
    <i name="pawaedc">  -7099.24479531 </i>
    <i name="eentropy">     -0.11838739 </i>
    <i name="bandstr">    446.00530523 </i>
    <i name="atom">   4687.48422623 </i>
    <i name="e_fr_energy">   -167.24250830 </i>
    <i name="e_wo_entrp">   -167.12412090 </i>
    <i name="e_0_energy">   -167.18331460 </i>
   </energy>
  </scstep>
  <structure>
   <crystal>
    <varray name="basis" >
     <v>       5.76873548       0.14002219      -0.19771667 </v>
     <v>      -0.73301839       6.97777734      -0.08514679 </v>
     <v>       0.73301837       2.23605405       6.61034742 </v>
    </varray>
    <i name="volume">    269.18942065 </i>
    <varray name="rec_basis" >
     <v>       0.17205700       0.01776850      -0.02508980 </v>
     <v>      -0.00508081       0.14219829      -0.04753740 </v>
     <v>       0.00508081       0.00236309       0.14991522 </v>
    </varray>
   </crystal>
   <varray name="positions" >
    <v>       0.56258763       0.82787637       0.39267177 </v>
    <v>       0.43741237       0.39267177       0.82787637 </v>
    <v>       0.43741237       0.17212363       0.60732823 </v>
    <v>       0.56258763       0.60732823       0.17212363 </v>
    <v>       0.81669905       0.58078694       0.95766167 </v>
    <v>       0.18330095       0.95766167       0.58078694 </v>
    <v>       0.18330095       0.41921306       0.04233833 </v>
    <v>       0.81669905       0.04233833       0.41921306 </v>
    <v>       0.15119421       0.75081919       0.24918081 </v>
    <v>       0.84880579       0.24918081       0.75081919 </v>
    <v>       0.28128272       0.77781491       0.88592413 </v>
    <v>       0.71871728       0.88592413       0.77781491 </v>
    <v>       0.71871728       0.22218509       0.11407587 </v>
    <v>       0.28128272       0.11407587       0.22218509 </v>
    <v>      -0.00000000       0.62502240       0.62502240 </v>
    <v>       0.00000000       0.37497760       0.37497760 </v>
    <v>       0.00000000       0.00000000       0.00000000 </v>
    <v>       0.50000000       0.00000000       0.00000000 </v>
    <v>       0.28938754       0.46428585       0.53571415 </v>
    <v>       0.71061246       0.53571415       0.46428585 </v>
   </varray>
  </structure>
  <varray name="forces" >
   <v>      -0.89394458       0.34216059       0.15509699 </v>
   <v>       0.89394458       0.25988681       0.27127070 </v>
   <v>       0.89394458      -0.34216059      -0.15509699 </v>
   <v>      -0.89394458      -0.25988681      -0.27127070 </v>
   <v>       1.53677545       0.00561180      -0.28961047 </v>
   <v>      -1.53677545      -0.27132430       0.10143387 </v>
   <v>      -1.53677545      -0.00561180       0.28961047 </v>
   <v>       1.53677545       0.27132430      -0.10143387 </v>
   <v>      -1.05668925      -0.10003183       0.14124875 </v>
   <v>       1.05668925       0.10003183      -0.14124875 </v>
   <v>      -0.20288720      -0.58525756      -0.14139013 </v>
   <v>       0.20288720      -0.32765673      -0.50513233 </v>
   <v>       0.20288720       0.58525756       0.14139013 </v>
   <v>      -0.20288720       0.32765673       0.50513233 </v>
   <v>      -0.00000000       0.79441671       0.56260292 </v>
   <v>       0.00000000      -0.79441671      -0.56260292 </v>
   <v>       0.00000000       0.00000000      -0.00000000 </v>
   <v>       0.00000000       0.00000000      -0.00000000 </v>
   <v>      -0.07206683       0.44009037      -0.62142439 </v>
   <v>       0.07206683      -0.44009037       0.62142439 </v>
  </varray>
  <varray name="stress" >
   <v>      10.61140829     -10.63566942      15.01797094 </v>
   <v>     -10.63566942      37.19672857      -2.92029793 </v>
   <v>      15.01797095      -2.92029793      39.25216018 </v>
  </varray>
  <energy>
   <i name="e_fr_energy">   -167.24250830 </i>
   <i name="e_wo_entrp">   -167.18331460 </i>
   <i name="e_0_energy">     -0.11838739 </i>
  </energy>
  <time name="totalsc">   15.86   15.87</time>
 </calculation>
 <calculation>
  <scstep>
   <time name="dav">    0.96    0.96</time>
   <time name="total">    1.06    1.06</time>
   <energy>
    <i name="alphaZ">    522.59004700 </i>
    <i name="ewald">  -5071.30515185 </i>
    <i name="hartreedc">   -766.10532689 </i>
    <i name="XCdc">   -770.81256518 </i>
    <i name="pawpsdc">   7901.65067053 </i>
    <i name="pawaedc">  -7099.22382385 </i>
    <i name="eentropy">     -0.13794081 </i>
    <i name="bandstr">    427.77051417 </i>
    <i name="atom">   4687.48422623 </i>
    <i name="e_fr_energy">   -168.08935066 </i>
    <i name="e_wo_entrp">   -167.95140985 </i>
    <i name="e_0_energy">   -168.02038026 </i>
   </energy>
  </scstep>
  <scstep>
   <time name="dav">    1.55    1.56</time>
   <time name="total">    1.65    1.66</time>
   <energy>
    <i name="e_fr_energy">   -180.50648554 </i>
    <i name="e_wo_entrp">   -180.39860572 </i>
    <i name="e_0_energy">   -180.45254563 </i>
   </energy>
  </scstep>
  <scstep>
   <time name="dav">    1.63    1.64</time>
   <time name="total">    1.73    1.73</time>
   <energy>
    <i name="e_fr_energy">   -168.04435881 </i>
    <i name="e_wo_entrp">   -167.90361755 </i>
    <i name="e_0_energy">   -167.97398818 </i>
   </energy>
  </scstep>
  <scstep>
   <time name="dav">    1.46    1.46</time>
   <time name="total">    1.56    1.56</time>
   <energy>
    <i name="e_fr_energy">   -168.38552425 </i>
    <i name="e_wo_entrp">   -168.23366645 </i>
    <i name="e_0_energy">   -168.30959535 </i>
   </energy>
  </scstep>
  <scstep>
   <time name="dav">    1.63    1.63</time>
   <time name="total">    1.72    1.72</time>
   <energy>
    <i name="e_fr_energy">   -168.22558659 </i>
    <i name="e_wo_entrp">   -168.08310943 </i>
    <i name="e_0_energy">   -168.15434801 </i>
   </energy>
  </scstep>
  <scstep>
   <time name="dav">    1.63    1.63</time>
   <time name="total">    1.73    1.73</time>
   <energy>
    <i name="e_fr_energy">   -168.25177721 </i>
    <i name="e_wo_entrp">   -168.11033141 </i>
    <i name="e_0_energy">   -168.18105431 </i>
   </energy>
  </scstep>
  <scstep>
   <time name="dav">    1.57    1.58</time>
   <time name="total">    1.67    1.68</time>
   <energy>
    <i name="e_fr_energy">   -168.20564821 </i>
    <i name="e_wo_entrp">   -168.05836166 </i>
    <i name="e_0_energy">   -168.13200494 </i>
   </energy>
  </scstep>
  <scstep>
   <time name="dav">    1.48    1.48</time>
   <time name="total">    1.57    1.58</time>
   <energy>
    <i name="e_fr_energy">   -168.14066074 </i>
    <i name="e_wo_entrp">   -167.99418585 </i>
    <i name="e_0_energy">   -168.06742330 </i>
   </energy>
  </scstep>
  <scstep>
   <time name="dav">    1.25    1.25</time>
   <time name="total">    1.33    1.34</time>
   <energy>
    <i name="e_fr_energy">   -168.14159729 </i>
    <i name="e_wo_entrp">   -167.99502429 </i>
    <i name="e_0_energy">   -168.06831079 </i>
   </energy>
  </scstep>
  <scstep>
   <time name="dav">    1.36    1.36</time>
   <time name="total">    1.45    1.45</time>
   <energy>
    <i name="e_fr_energy">   -168.14140789 </i>
    <i name="e_wo_entrp">   -167.99402942 </i>
    <i name="e_0_energy">   -168.06771865 </i>
   </energy>
  </scstep>
  <scstep>
   <time name="dav">    1.55    1.55</time>
   <time name="total">    1.65    1.65</time>
   <energy>
    <i name="e_fr_energy">   -168.14109660 </i>
    <i name="e_wo_entrp">   -167.99423032 </i>
    <i name="e_0_energy">   -168.06766346 </i>
   </energy>
  </scstep>
  <scstep>
   <time name="dav">    1.41    1.41</time>
   <time name="total">    1.50    1.51</time>
   <energy>
    <i name="e_fr_energy">   -168.14107477 </i>
    <i name="e_wo_entrp">   -167.99379729 </i>
    <i name="e_0_energy">   -168.06743603 </i>
   </energy>
  </scstep>
  <scstep>
   <time name="dav">    1.65    1.65</time>
   <time name="total">    1.75    1.75</time>
   <energy>
    <i name="e_fr_energy">   -168.14097149 </i>
    <i name="e_wo_entrp">   -167.99386858 </i>
    <i name="e_0_energy">   -168.06742003 </i>
   </energy>
  </scstep>
  <scstep>
   <time name="dav">    1.42    1.43</time>
   <time name="total">    1.53    1.53</time>
   <energy>
    <i name="e_fr_energy">   -168.14097515 </i>
    <i name="e_wo_entrp">   -167.99395126 </i>
    <i name="e_0_energy">   -168.06746320 </i>
   </energy>
  </scstep>
  <scstep>
   <time name="dav">    0.94    0.94</time>
   <time name="total">    0.98    1.00</time>
   <energy>
    <i name="alphaZ">    522.59004700 </i>
    <i name="ewald">  -5071.30515185 </i>
    <i name="hartreedc">   -772.95997800 </i>
    <i name="XCdc">   -770.71233874 </i>
    <i name="pawpsdc">   7688.91044844 </i>
    <i name="pawaedc">  -6885.15851506 </i>
    <i name="eentropy">     -0.14706222 </i>
    <i name="bandstr">    433.15735470 </i>
    <i name="atom">   4687.48422623 </i>
    <i name="e_fr_energy">   -168.14096950 </i>
    <i name="e_wo_entrp">   -167.99390728 </i>
    <i name="e_0_energy">   -168.06743839 </i>
   </energy>
  </scstep>
  <structure>
   <crystal>
    <varray name="basis" >
     <v>       5.62466955       0.13967115      -0.19722100 </v>
     <v>      -0.71978939       7.11651686      -0.12242294 </v>
     <v>       0.71978938       2.24694832       6.75359366 </v>
    </varray>
    <i name="volume">    273.87631797 </i>
    <varray name="rec_basis" >
     <v>       0.17649259       0.01742774      -0.02460864 </v>
     <v>      -0.00506224       0.13921865      -0.04577909 </v>
     <v>       0.00506224       0.00303256       0.14652084 </v>
    </varray>
   </crystal>
   <varray name="positions" >
    <v>       0.54879428       0.83096993       0.39543508 </v>
    <v>       0.45120572       0.39543508       0.83096993 </v>
    <v>       0.45120572       0.16903007       0.60456492 </v>
    <v>       0.54879428       0.60456492       0.16903007 </v>
    <v>       0.83264717       0.58090711       0.96270437 </v>
    <v>       0.16735283       0.96270437       0.58090711 </v>
    <v>       0.16735283       0.41909289       0.03729563 </v>
    <v>       0.83264717       0.03729563       0.41909289 </v>
    <v>       0.13644430       0.75169703       0.24830297 </v>
    <v>       0.86355570       0.24830297       0.75169703 </v>
    <v>       0.28489534       0.77436034       0.88318765 </v>
    <v>       0.71510466       0.88318765       0.77436034 </v>
    <v>       0.71510466       0.22563966       0.11681235 </v>
    <v>       0.28489534       0.11681235       0.22563966 </v>
    <v>      -0.00000000       0.62732386       0.62732386 </v>
    <v>       0.00000000       0.37267614       0.37267614 </v>
    <v>       0.00000000       0.00000000       0.00000000 </v>
    <v>       0.50000000       0.00000000       0.00000000 </v>
    <v>       0.30259658       0.46806347       0.53193653 </v>
    <v>       0.69740342       0.53193653       0.46806347 </v>
   </varray>
  </structure>
  <varray name="forces" >
   <v>      -0.67648344       0.03969768      -0.05865165 </v>
   <v>       0.67648344      -0.04214742       0.05691676 </v>
   <v>       0.67648344      -0.03969768       0.05865165 </v>
   <v>      -0.67648344       0.04214742      -0.05691676 </v>
   <v>       0.83509497       0.32763959      -0.00408791 </v>
   <v>      -0.83509498       0.10490853       0.31041685 </v>
   <v>      -0.83509497      -0.32763959       0.00408791 </v>
   <v>       0.83509498      -0.10490853      -0.31041685 </v>
   <v>      -0.65236532      -0.24445723       0.34518294 </v>
   <v>       0.65236532       0.24445723      -0.34518294 </v>
   <v>      -0.24596948      -0.35491874      -0.13914849 </v>
   <v>       0.24596948      -0.24907797      -0.28859970 </v>
   <v>       0.24596948       0.35491874       0.13914849 </v>
   <v>      -0.24596948       0.24907797       0.28859970 </v>
   <v>      -0.00000000       0.21728270       0.15387879 </v>
   <v>       0.00000000      -0.21728270      -0.15387879 </v>
   <v>      -0.00000000       0.00000000      -0.00000000 </v>
   <v>      -0.00000000       0.00000000      -0.00000000 </v>
   <v>      -0.70735165       0.19679774      -0.27788592 </v>
   <v>       0.70735165      -0.19679774       0.27788592 </v>
  </varray>
  <varray name="stress" >
   <v>       4.33341039      -3.72070896       5.25378310 </v>
   <v>      -3.72070906     -32.78573085       0.82886346 </v>
   <v>       5.25378325       0.82886346     -33.36912289 </v>
  </varray>
  <energy>
   <i name="e_fr_energy">   -168.14096950 </i>
   <i name="e_wo_entrp">   -168.06743839 </i>
   <i name="e_0_energy">     -0.14706222 </i>
  </energy>
  <time name="totalsc">   24.94   24.98</time>
 </calculation>
 <calculation>
  <scstep>
   <time name="dav">    0.98    0.98</time>
   <time name="total">    1.08    1.08</time>
   <energy>
    <i name="alphaZ">    519.20705086 </i>
    <i name="ewald">  -5062.47349478 </i>
    <i name="hartreedc">   -769.65657810 </i>
    <i name="XCdc">   -771.08064678 </i>
    <i name="pawpsdc">   7688.85975863 </i>
    <i name="pawaedc">  -6885.11069024 </i>
    <i name="eentropy">     -0.16493190 </i>
    <i name="bandstr">    424.71728830 </i>
    <i name="atom">   4687.48422623 </i>
    <i name="e_fr_energy">   -168.21801780 </i>
    <i name="e_wo_entrp">   -168.05308589 </i>
    <i name="e_0_energy">   -168.13555184 </i>
   </energy>
  </scstep>
  <scstep>
   <time name="dav">    1.58    1.58</time>
   <time name="total">    1.67    1.67</time>
   <energy>
    <i name="e_fr_energy">   -169.87049840 </i>
    <i name="e_wo_entrp">   -169.75256159 </i>
    <i name="e_0_energy">   -169.81153000 </i>
   </energy>
  </scstep>
  <scstep>
   <time name="dav">    1.65    1.65</time>
   <time name="total">    1.75    1.75</time>
   <energy>
    <i name="e_fr_energy">   -168.22942490 </i>
    <i name="e_wo_entrp">   -168.07787421 </i>
    <i name="e_0_energy">   -168.15364956 </i>
   </energy>
  </scstep>
  <scstep>
   <time name="dav">    1.45    1.46</time>
   <time name="total">    1.55    1.55</time>
   <energy>
    <i name="e_fr_energy">   -168.24543315 </i>
    <i name="e_wo_entrp">   -168.08296642 </i>
    <i name="e_0_energy">   -168.16419979 </i>
   </energy>
  </scstep>
  <scstep>
   <time name="dav">    1.55    1.55</time>
   <time name="total">    1.65    1.65</time>
   <energy>
    <i name="e_fr_energy">   -168.24283625 </i>
    <i name="e_wo_entrp">   -168.08994119 </i>
    <i name="e_0_energy">   -168.16638872 </i>
   </energy>
  </scstep>
  <scstep>
   <time name="dav">    1.59    1.59</time>
   <time name="total">    1.68    1.68</time>
   <energy>
    <i name="e_fr_energy">   -168.22389907 </i>
    <i name="e_wo_entrp">   -168.06827626 </i>
    <i name="e_0_energy">   -168.14608767 </i>
   </energy>
  </scstep>
  <scstep>
   <time name="dav">    1.58    1.58</time>
   <time name="total">    1.68    1.68</time>
   <energy>
    <i name="e_fr_energy">   -168.22221991 </i>
    <i name="e_wo_entrp">   -168.06684766 </i>
    <i name="e_0_energy">   -168.14453379 </i>
   </energy>
  </scstep>
  <scstep>
   <time name="dav">    1.47    1.47</time>
   <time name="total">    1.57    1.57</time>
   <energy>
    <i name="e_fr_energy">   -168.21236996 </i>
    <i name="e_wo_entrp">   -168.05612428 </i>
    <i name="e_0_energy">   -168.13424712 </i>
   </energy>
  </scstep>
[...]
       <r>    6.8175    0.0000 </r>
       <r>    6.8189    0.0000 </r>
       <r>    6.8912    0.0000 </r>
       <r>    7.0705    0.0000 </r>
       <r>    7.1032    0.0000 </r>
       <r>    7.1499    0.0000 </r>
       <r>    7.3373    0.0000 </r>
       <r>    7.4427    0.0000 </r>
      </set>
      <set comment="kpoint 6">
       <r>    1.6835    1.0000 </r>
       <r>    1.7585    1.0000 </r>
       <r>    1.8359    1.0000 </r>
       <r>    2.1054    1.0000 </r>
       <r>    2.1187    1.0000 </r>
       <r>    2.1235    1.0000 </r>
       <r>    2.7640    1.0000 </r>
       <r>    2.8923    1.0000 </r>
       <r>    2.9313    1.0000 </r>
       <r>    2.9675    1.0000 </r>
       <r>    3.1693    1.0000 </r>
       <r>    3.1842    1.0000 </r>
       <r>    3.3850    1.0000 </r>
       <r>    3.4775    1.0000 </r>
       <r>    3.7473    1.0000 </r>
       <r>    3.8716    1.0000 </r>
       <r>    3.9258    1.0000 </r>
       <r>    3.9835    1.0000 </r>
       <r>    3.9920    1.0000 </r>
       <r>    4.0379    1.0000 </r>
       <r>    4.0774    1.0000 </r>
       <r>    4.1666    1.0000 </r>
       <r>    4.2022    1.0000 </r>
       <r>    4.2704    1.0000 </r>
       <r>    4.3201    1.0000 </r>
       <r>    4.4327    1.0000 </r>
       <r>    4.4897    1.0000 </r>
       <r>    4.5684    1.0000 </r>
       <r>    4.6753    1.0000 </r>
       <r>    4.6911    1.0000 </r>
       <r>    4.9494    1.0000 </r>
       <r>    4.9957    1.0000 </r>
       <r>    5.0025    1.0000 </r>
       <r>    5.0807    1.0000 </r>
       <r>    5.0817    1.0000 </r>
       <r>    5.2811    1.0000 </r>
       <r>    5.3171    1.0000 </r>
       <r>    5.3286    1.0000 </r>
       <r>    5.3487    1.0000 </r>
       <r>    5.3666    1.0000 </r>
       <r>    5.5297    1.0000 </r>
       <r>    5.5629    1.0000 </r>
       <r>    5.6532    1.0000 </r>
       <r>    5.6727    1.0000 </r>
       <r>    5.6896    1.0000 </r>
       <r>    5.6944    1.0000 </r>
       <r>    5.9315    1.0000 </r>
       <r>    5.9808    1.0000 </r>
       <r>    6.0656    1.0000 </r>
       <r>    6.1555    1.0000 </r>
       <r>    6.1715    0.9999 </r>
       <r>    6.1990    0.9996 </r>
       <r>    6.3572    0.8642 </r>
       <r>    6.4260    0.5505 </r>
       <r>    6.4436    0.4511 </r>
       <r>    6.5133    0.1340 </r>
       <r>    6.5530    0.0475 </r>
       <r>    6.7367    0.0000 </r>
       <r>    6.7755    0.0000 </r>
       <r>    6.8116    0.0000 </r>
       <r>    6.9039    0.0000 </r>
       <r>    7.0351    0.0000 </r>
       <r>    7.1352    0.0000 </r>
       <r>    7.2462    0.0000 </r>
       <r>    7.2804    0.0000 </r>
       <r>    7.2842    0.0000 </r>
       <r>    7.2947    0.0000 </r>
       <r>    7.4761    0.0000 </r>
      </set>
     </set>
    </set>
   </array>
  </eigenvalues>
  <separator name="orbital magnetization" >
   <v name="MAGDIPOLOUT">      0.00000000      0.00000000      0.00000000</v>
  </separator>
  <dos>
   <i name="efermi">      6.43494872 </i>
   <total>
    <array>
     <dimension dim="1">gridpoints</dimension>
     <dimension dim="2">spin</dimension>
     <field>energy</field>
     <field>total</field>
     <field>integrated</field>
     <set>
      <set comment="spin 1">
       <r>    -1.5518     0.0000     0.0000 </r>
       <r>    -1.5180     0.0000     0.0000 </r>
       <r>    -1.4843     0.0000     0.0000 </r>
       <r>    -1.4505     0.0000     0.0000 </r>
       <r>    -1.4167     0.0000     0.0000 </r>
       <r>    -1.3830     0.0000     0.0000 </r>
       <r>    -1.3492     0.0000     0.0000 </r>
       <r>    -1.3154     0.0000     0.0000 </r>
       <r>    -1.2817     0.0000     0.0000 </r>
       <r>    -1.2479     0.0000     0.0000 </r>
       <r>    -1.2141     0.0000     0.0000 </r>
       <r>    -1.1804     0.0000     0.0000 </r>
       <r>    -1.1466     0.0000     0.0000 </r>
       <r>    -1.1128     0.0000     0.0000 </r>
       <r>    -1.0791     0.0000     0.0000 </r>
       <r>    -1.0453     0.0000     0.0000 </r>
       <r>    -1.0116     0.0000     0.0000 </r>
       <r>    -0.9778     0.0000     0.0000 </r>
       <r>    -0.9440     0.0000     0.0000 </r>
       <r>    -0.9103     0.0000     0.0000 </r>
       <r>    -0.8765     0.0000     0.0000 </r>
       <r>    -0.8427     0.0001     0.0000 </r>
       <r>    -0.8090     0.0009     0.0000 </r>
       <r>    -0.7752     0.0048     0.0002 </r>
       <r>    -0.7414     0.0213     0.0009 </r>
       <r>    -0.7077     0.0747     0.0034 </r>
       <r>    -0.6739     0.2100     0.0105 </r>
       <r>    -0.6401     0.4716     0.0265 </r>
       <r>    -0.6064     0.8467     0.0550 </r>
       <r>    -0.5726     1.2155     0.0961 </r>
       <r>    -0.5388     1.3951     0.1432 </r>
       <r>    -0.5051     1.2802     0.1864 </r>
       <r>    -0.4713     0.9393     0.2181 </r>
       <r>    -0.4375     0.5510     0.2367 </r>
       <r>    -0.4038     0.2584     0.2455 </r>
       <r>    -0.3700     0.0969     0.2487 </r>
       <r>    -0.3362     0.0290     0.2497 </r>
       <r>    -0.3025     0.0070     0.2499 </r>
       <r>    -0.2687     0.0013     0.2500 </r>
       <r>    -0.2349     0.0002     0.2500 </r>
       <r>    -0.2012     0.0000     0.2500 </r>
       <r>    -0.1674     0.0000     0.2500 </r>
       <r>    -0.1336     0.0000     0.2500 </r>
       <r>    -0.0999     0.0000     0.2500 </r>
       <r>    -0.0661     0.0000     0.2500 </r>
       <r>    -0.0323     0.0000     0.2500 </r>
       <r>     0.0014     0.0000     0.2500 </r>
       <r>     0.0352     0.0000     0.2500 </r>
       <r>     0.0689     0.0000     0.2500 </r>
       <r>     0.1027     0.0000     0.2500 </r>
       <r>     0.1365     0.0001     0.2500 </r>
       <r>     0.1702     0.0004     0.2500 </r>
       <r>     0.2040     0.0026     0.2501 </r>
       <r>     0.2378     0.0133     0.2506 </r>
       <r>     0.2715     0.0555     0.2524 </r>
       <r>     0.3053     0.1885     0.2588 </r>
       <r>     0.3391     0.5238     0.2765 </r>
       <r>     0.3728     1.1988     0.3170 </r>
       <r>     0.4066     2.2743     0.3938 </r>
       <r>     0.4404     3.6095     0.5156 </r>
       <r>     0.4741     4.8585     0.6797 </r>
       <r>     0.5079     5.6623     0.8709 </r>
       <r>     0.5417     5.8767     1.0693 </r>
       <r>     0.5754     5.5837     1.2578 </r>
       <r>     0.6092     4.9095     1.4236 </r>
       <r>     0.6430     3.9302     1.5563 </r>
       <r>     0.6767     2.7692     1.6498 </r>
       <r>     0.7105     1.6600     1.7059 </r>
       <r>     0.7443     0.8266     1.7338 </r>
       <r>     0.7780     0.3427     1.7454 </r>
       <r>     0.8118     0.1452     1.7503 </r>
       <r>     0.8456     0.1610     1.7557 </r>
       <r>     0.8793     0.4080     1.7695 </r>
       <r>     0.9131     1.0007     1.8033 </r>
       <r>     0.9469     2.0493     1.8725 </r>
       <r>     0.9806     3.4943     1.9904 </r>
       <r>     1.0144     4.9995     2.1593 </r>
       <r>     1.0482     6.0326     2.3630 </r>
       <r>     1.0819     6.1385     2.5702 </r>
       <r>     1.1157     5.2413     2.7472 </r>
       <r>     1.1495     3.7320     2.8732 </r>
       <r>     1.1832     2.2287     2.9485 </r>
       <r>     1.2170     1.2046     2.9891 </r>
       <r>     1.2507     0.7990     3.0161 </r>
       <r>     1.2845     0.8782     3.0458 </r>
       <r>     1.3183     1.1707     3.0853 </r>
       <r>     1.3520     1.3846     3.1321 </r>
       <r>     1.3858     1.3350     3.1771 </r>
       <r>     1.4196     1.0371     3.2121 </r>
       <r>     1.4533     0.6652     3.2346 </r>
       <r>     1.4871     0.4170     3.2487 </r>
       <r>     1.5209     0.4297     3.2632 </r>
       <r>     1.5546     0.7940     3.2900 </r>
       <r>     1.5884     1.5708     3.3430 </r>
       <r>     1.6222     2.7428     3.4357 </r>
       <r>     1.6559     4.1497     3.5758 </r>
       <r>     1.6897     5.5006     3.7615 </r>
       <r>     1.7235     6.4973     3.9809 </r>
       <r>     1.7572     7.0198     4.2179 </r>
       <r>     1.7910     7.1967     4.4609 </r>
       <r>     1.8248     7.2007     4.7041 </r>
       <r>     1.8585     6.9525     4.9388 </r>
       <r>     1.8923     6.1744     5.1473 </r>
       <r>     1.9261     4.8145     5.3099 </r>
       <r>     1.9598     3.2959     5.4212 </r>
       <r>     1.9936     2.2615     5.4975 </r>
       <r>     2.0274     2.1184     5.5690 </r>
       <r>     2.0611     2.7839     5.6630 </r>
       <r>     2.0949     3.7281     5.7889 </r>
       <r>     2.1287     4.2873     5.9337 </r>
       <r>     2.1624     4.1182     6.0727 </r>
       <r>     2.1962     3.4193     6.1882 </r>
       <r>     2.2300     2.6569     6.2779 </r>
       <r>     2.2637     2.1002     6.3488 </r>
       <r>     2.2975     1.6880     6.4058 </r>
       <r>     2.3312     1.2712     6.4487 </r>
       <r>     2.3650     0.8451     6.4773 </r>
       <r>     2.3988     0.5456     6.4957 </r>
       <r>     2.4325     0.5397     6.5139 </r>
       <r>     2.4663     0.9649     6.5465 </r>
       <r>     2.5001     1.8719     6.6097 </r>
       <r>     2.5338     3.1142     6.7149 </r>
       <r>     2.5676     4.3395     6.8614 </r>
       <r>     2.6014     5.2564     7.0389 </r>
       <r>     2.6351     5.9599     7.2401 </r>
       <r>     2.6689     6.8769     7.4723 </r>
       <r>     2.7027     8.3429     7.7540 </r>
       <r>     2.7364    10.3360     8.1030 </r>
       <r>     2.7702    12.6207     8.5292 </r>
       <r>     2.8040    14.9653     9.0345 </r>
       <r>     2.8377    17.1435     9.6133 </r>
       <r>     2.8715    18.8938    10.2513 </r>
       <r>     2.9053    20.0591    10.9286 </r>
       <r>     2.9390    20.7660    11.6298 </r>
       <r>     2.9728    21.3665    12.3512 </r>
       <r>     3.0066    22.1424    13.0989 </r>
       <r>     3.0403    23.0761    13.8781 </r>
       <r>     3.0741    23.9763    14.6877 </r>
       <r>     3.1079    24.8722    15.5275 </r>
       <r>     3.1416    26.1743    16.4113 </r>
       <r>     3.1754    28.2037    17.3636 </r>
       <r>     3.2092    30.4659    18.3923 </r>
       <r>     3.2429    31.6694    19.4616 </r>
       <r>     3.2767    30.8313    20.5027 </r>
       <r>     3.3105    28.3531    21.4600 </r>
       <r>     3.3442    25.7691    22.3301 </r>
       <r>     3.3780    24.4543    23.1559 </r>
       <r>     3.4118    24.6858    23.9894 </r>
       <r>     3.4455    25.7085    24.8575 </r>
       <r>     3.4793    26.3430    25.7469 </r>
       <r>     3.5130    25.6239    26.6122 </r>
       <r>     3.5468    23.3231    27.3997 </r>
       <r>     3.5806    20.1602    28.0804 </r>
       <r>     3.6143    17.4457    28.6695 </r>
       <r>     3.6481    16.2970    29.2197 </r>
       <r>     3.6819    17.0041    29.7939 </r>
       <r>     3.7156    19.0295    30.4364 </r>
       <r>     3.7494    21.5806    31.1651 </r>
       <r>     3.7832    24.2016    31.9823 </r>
       <r>     3.8169    26.8410    32.8886 </r>
       <r>     3.8507    29.4212    33.8820 </r>
       <r>     3.8845    31.5075    34.9459 </r>
       <r>     3.9182    32.4913    36.0430 </r>
       <r>     3.9520    32.0511    37.1252 </r>
       <r>     3.9858    30.4266    38.1526 </r>
       <r>     4.0195    28.3029    39.1083 </r>
       <r>     4.0533    26.3732    39.9988 </r>
       <r>     4.0871    24.9345    40.8407 </r>
       <r>     4.1208    23.9195    41.6484 </r>
       <r>     4.1546    23.2883    42.4347 </r>
       <r>     4.1884    23.2406    43.2194 </r>
       <r>     4.2221    23.9669    44.0287 </r>
       <r>     4.2559    25.2670    44.8819 </r>
       <r>     4.2897    26.5552    45.7785 </r>
       <r>     4.3234    27.3024    46.7004 </r>
       <r>     4.3572    27.4320    47.6267 </r>
       <r>     4.3910    27.2986    48.5484 </r>
       <r>     4.4247    27.3979    49.4735 </r>
       <r>     4.4585    28.0731    50.4214 </r>
       <r>     4.4923    29.2857    51.4103 </r>
       <r>     4.5260    30.5811    52.4429 </r>
       <r>     4.5598    31.4118    53.5035 </r>
       <r>     4.5935    31.6038    54.5706 </r>
       <r>     4.6273    31.4793    55.6336 </r>
       <r>     4.6611    31.4772    56.6964 </r>
       <r>     4.6948    31.6829    57.7662 </r>
       <r>     4.7286    31.8641    58.8421 </r>
       <r>     4.7624    32.0061    59.9228 </r>
       <r>     4.7961    32.5087    61.0205 </r>
       <r>     4.8299    33.5856    62.1545 </r>
       <r>     4.8637    34.7123    63.3266 </r>
       <r>     4.8974    35.0070    64.5087 </r>
       <r>     4.9312    34.0241    65.6575 </r>
       <r>     4.9650    31.9872    66.7376 </r>
       <r>     4.9987    29.5054    67.7338 </r>
       <r>     5.0325    27.2955    68.6555 </r>
       <r>     5.0663    25.9116    69.5304 </r>
       <r>     5.1000    25.4502    70.3898 </r>
       <r>     5.1338    25.6242    71.2550 </r>
       <r>     5.1676    26.2498    72.1413 </r>
       <r>     5.2013    27.5239    73.0707 </r>
       <r>     5.2351    29.7473    74.0751 </r>
       <r>     5.2689    32.8776    75.1853 </r>
       <r>     5.3026    36.2862    76.4105 </r>
       <r>     5.3364    38.7712    77.7196 </r>
       <r>     5.3702    39.0387    79.0378 </r>
       <r>     5.4039    36.6878    80.2766 </r>
       <r>     5.4377    32.8042    81.3842 </r>
       <r>     5.4715    29.2579    82.3721 </r>
       <r>     5.5052    27.3180    83.2945 </r>
       <r>     5.5390    27.0699    84.2086 </r>
       <r>     5.5728    28.0202    85.1547 </r>
       <r>     5.6065    29.8761    86.1635 </r>
       <r>     5.6403    32.5376    87.2621 </r>
       <r>     5.6741    35.4934    88.4606 </r>
       <r>     5.7078    37.6307    89.7312 </r>
       <r>     5.7416    37.9412    91.0123 </r>
       <r>     5.7753    36.3346    92.2392 </r>
       <r>     5.8091    33.5374    93.3716 </r>
       <r>     5.8429    30.2733    94.3938 </r>
       <r>     5.8766    26.7997    95.2987 </r>
       <r>     5.9104    23.2453    96.0836 </r>
       <r>     5.9442    20.0847    96.7618 </r>
       <r>     5.9779    18.0283    97.3705 </r>
       <r>     6.0117    17.5489    97.9631 </r>
       <r>     6.0455    18.6746    98.5936 </r>
       <r>     6.0792    21.0702    99.3051 </r>
       <r>     6.1130    24.0917   100.1186 </r>
       <r>     6.1468    26.9098   101.0272 </r>
       <r>     6.1805    28.8922   102.0027 </r>
       <r>     6.2143    29.9163   103.0129 </r>
       <r>     6.2481    30.2276   104.0335 </r>
       <r>     6.2818    30.0343   105.0477 </r>
       <r>     6.3156    29.3012   106.0370 </r>
       <r>     6.3494    27.8499   106.9774 </r>
       <r>     6.3831    25.6182   107.8424 </r>
       <r>     6.4169    22.9673   108.6179 </r>
       <r>     6.4507    20.8033   109.3204 </r>
       <r>     6.4844    20.1756   110.0016 </r>
       <r>     6.5182    21.4707   110.7266 </r>
       <r>     6.5520    23.9366   111.5348 </r>
       <r>     6.5857    26.1408   112.4175 </r>
       <r>     6.6195    27.0298   113.3302 </r>
       <r>     6.6533    26.5849   114.2278 </r>
       <r>     6.6870    25.5745   115.0914 </r>
       <r>     6.7208    24.8727   115.9312 </r>
       <r>     6.7546    24.9653   116.7742 </r>
       <r>     6.7883    25.8269   117.6462 </r>
       <r>     6.8221    27.1325   118.5624 </r>
       <r>     6.8558    28.5721   119.5271 </r>
       <r>     6.8896    29.8554   120.5352 </r>
       <r>     6.9234    30.4596   121.5637 </r>
       <r>     6.9571    29.7704   122.5689 </r>
       <r>     6.9909    27.7121   123.5047 </r>
       <r>     7.0247    25.0088   124.3491 </r>
       <r>     7.0584    22.6354   125.1134 </r>
       <r>     7.0922    21.1728   125.8283 </r>
       <r>     7.1260    20.7429   126.5287 </r>
       <r>     7.1597    21.2369   127.2458 </r>
       <r>     7.1935    22.3844   128.0016 </r>
       <r>     7.2273    23.7883   128.8048 </r>
       <r>     7.2610    25.0915   129.6521 </r>
       <r>     7.2948    26.0654   130.5322 </r>
       <r>     7.3286    26.5216   131.4277 </r>
       <r>     7.3623    26.2446   132.3139 </r>
       <r>     7.3961    25.0016   133.1581 </r>
       <r>     7.4299    22.5726   133.9202 </r>
       <r>     7.4636    18.9421   134.5598 </r>
       <r>     7.4974    14.5913   135.0525 </r>
       <r>     7.5312    10.3986   135.4036 </r>
       <r>     7.5649     7.0536   135.6418 </r>
       <r>     7.5987     4.6569   135.7991 </r>
       <r>     7.6325     2.9399   135.8983 </r>
       <r>     7.6662     1.6846   135.9552 </r>
       <r>     7.7000     0.8315   135.9833 </r>
       <r>     7.7338     0.3415   135.9948 </r>
       <r>     7.7675     0.1145   135.9987 </r>
       <r>     7.8013     0.0310   135.9997 </r>
       <r>     7.8351     0.0068   136.0000 </r>
       <r>     7.8688     0.0012   136.0000 </r>
       <r>     7.9026     0.0002   136.0000 </r>
       <r>     7.9364     0.0000   136.0000 </r>
       <r>     7.9701     0.0000   136.0000 </r>
       <r>     8.0039     0.0000   136.0000 </r>
       <r>     8.0376     0.0000   136.0000 </r>
       <r>     8.0714     0.0000   136.0000 </r>
       <r>     8.1052     0.0000   136.0000 </r>
       <r>     8.1389     0.0000   136.0000 </r>
       <r>     8.1727     0.0000   136.0000 </r>
       <r>     8.2065     0.0000   136.0000 </r>
       <r>     8.2402     0.0000   136.0000 </r>
       <r>     8.2740     0.0000   136.0000 </r>
       <r>     8.3078     0.0000   136.0000 </r>
       <r>     8.3415     0.0000   136.0000 </r>
       <r>     8.3753     0.0000   136.0000 </r>
       <r>     8.4091     0.0000   136.0000 </r>
       <r>     8.4428     0.0000   136.0000 </r>
       <r>     8.4766     0.0000   136.0000 </r>
       <r>     8.5104     0.0000   136.0000 </r>
       <r>     8.5441     0.0000   136.0000 </r>
       <r>     8.5779     0.0000   136.0000 </r>
      </set>
     </set>
    </array>
   </total>
  </dos>
 </calculation>
 <structure name="finalpos" >
  <crystal>
   <varray name="basis" >
    <v>       6.68093724      -0.08780711       0.12398699 </v>
    <v>      -1.14361281       6.27195321      -0.55629719 </v>
    <v>       1.14361283       1.55731329       6.10095416 </v>
   </varray>
   <i name="volume">    259.76636305 </i>
   <varray name="rec_basis" >
    <v>       0.15064009       0.02441017      -0.03446809 </v>
    <v>       0.00280557       0.15636474      -0.04043915 </v>
    <v>      -0.00280557       0.01376157       0.16092195 </v>
   </varray>
  </crystal>
  <varray name="positions" >
   <v>       0.45779458       0.83190713       0.43114101 </v>
   <v>       0.54220542       0.43114101       0.83190713 </v>
   <v>       0.54220542       0.16809287       0.56885899 </v>
   <v>       0.45779458       0.56885899       0.16809287 </v>
   <v>       0.85854252       0.61720994       0.05784476 </v>
   <v>       0.14145748       0.05784476       0.61720994 </v>
   <v>       0.14145748       0.38279006      -0.05784476 </v>
   <v>       0.85854252      -0.05784476       0.38279006 </v>
   <v>       0.15641858       0.74264194       0.25735806 </v>
   <v>       0.84358142       0.25735806       0.74264194 </v>
   <v>       0.29722154       0.76254015       0.84335519 </v>
   <v>       0.70277846       0.84335519       0.76254015 </v>
   <v>       0.70277846       0.23745985       0.15664481 </v>
   <v>       0.29722154       0.15664481       0.23745985 </v>
   <v>      -0.00000000       0.65190393       0.65190393 </v>
   <v>       0.00000000       0.34809607       0.34809607 </v>
   <v>       0.00000000       0.00000000       0.00000000 </v>
   <v>       0.50000000       0.00000000       0.00000000 </v>
   <v>       0.27980979       0.43866496       0.56133504 </v>
   <v>       0.72019021       0.56133504       0.43866496 </v>
  </varray>
 </structure>
</modeling>
