unknown system                          
           1
     6.415122    0.000000    0.000000
    -0.974455    6.543118    0.000000
     0.974455    2.172081    6.172071
   V    Fe
  17   3
Direct configuration=     1
   0.58824100  0.82795500  0.38185000
   0.41175900  0.38185000  0.82795500
   0.41175900  0.17204500  0.61815000
   0.58824100  0.61815000  0.17204500
   0.81794300  0.58436700  0.91680000
   0.18205700  0.91680000  0.58436700
   0.18205700  0.41563300  0.08320000
   0.81794300  0.08320000  0.41563300
   0.16996100  0.73936700  0.26063300
   0.83003900  0.26063300  0.73936700
   0.25166000  0.77491100  0.89431100
   0.74834000  0.89431100  0.77491100
   0.74834000  0.22508900  0.10568900
   0.25166000  0.10568900  0.22508900
   0.00000000  0.63485000  0.63485000
   0.00000000  0.36515000  0.36515000
   0.00000000  0.00000000  0.00000000
   0.50000000  0.00000000  0.00000000
   0.22341800  0.47321200  0.52678800
   0.77658200  0.52678800  0.47321200
unknown system                          
           1
     6.605030    0.048388   -0.068325
    -0.953949    7.166100   -0.016300
     0.953949    2.363513    6.765135
   V    Fe
  17   3
Direct configuration=     2
   0.57838499  0.82528647  0.38763094
   0.42161501  0.38763094  0.82528647
   0.42161501  0.17471353  0.61236906
   0.57838499  0.61236906  0.17471353
   0.81280268  0.58074221  0.93690689
   0.18719732  0.93690689  0.58074221
   0.18719732  0.41925779  0.06309311
   0.81280268  0.06309311  0.41925779
   0.16415188  0.74677152  0.25322848
   0.83584812  0.25322848  0.74677152
   0.26439651  0.77404553  0.89085861
   0.73560349  0.89085861  0.77404553
   0.73560349  0.22595447  0.10914139
   0.26439651  0.10914139  0.22595447
   0.00000000  0.63477383  0.63477383
   0.00000000  0.36522617  0.36522617
   0.00000000 -0.00000000 -0.00000000
   0.50000000 -0.00000000 -0.00000000
   0.25687400  0.46628869  0.53371131
   0.74312600  0.53371131  0.46628869
unknown system                          
           1
     6.532864    0.030000   -0.042361
    -0.961741    6.929363   -0.010106
     0.961741    2.290768    6.539767
   V    Fe
  17   3
Direct configuration=     3
   0.58196060  0.82617078  0.38566497
   0.41803940  0.38566497  0.82617078
   0.41803940  0.17382922  0.61433503
   0.58196060  0.61433503  0.17382922
   0.81454975  0.58196451  0.92995656
   0.18545025  0.92995656  0.58196451
   0.18545025  0.41803549  0.07004344
   0.81454975  0.07004344  0.41803549
   0.16637993  0.74418815  0.25581185
   0.83362007  0.25581185  0.74418815
   0.25972512  0.77439553  0.89200919
   0.74027488  0.89200919  0.77439553
   0.74027488  0.22560447  0.10799081
   0.25972512  0.10799081  0.22560447
   0.00000000  0.63480030  0.63480030
  -0.00000000  0.36519970  0.36519970
   0.00000000 -0.00000000 -0.00000000
   0.50000000 -0.00000000 -0.00000000
   0.24447751  0.46880808  0.53119192
   0.75552249  0.53119192  0.46880808
unknown system                          
           1
     6.191576    0.079140   -0.111749
    -0.859585    6.950986   -0.043622
     0.859585    2.266331    6.571291
   V    Fe
  17   3
Direct configuration=     4
   0.57352601  0.82687282  0.38885354
   0.42647399  0.38885354  0.82687282
   0.42647399  0.17312718  0.61114646
   0.57352601  0.61114646  0.17312718
   0.81535896  0.58140956  0.94235767
   0.18464104  0.94235767  0.58140956
   0.18464104  0.41859044  0.05764233
   0.81535896  0.05764233  0.41859044
   0.15984317  0.74712369  0.25287631
   0.84015683  0.25287631  0.74712369
   0.26912634  0.77599319  0.88922115
   0.73087366  0.88922115  0.77599319
   0.73087366  0.22400681  0.11077885
   0.26912634  0.11077885  0.22400681
   0.00000000  0.63043387  0.63043387
  -0.00000000  0.36956613  0.36956613
   0.00000000  0.00000000  0.00000000
   0.50000000  0.00000000  0.00000000
   0.26393881  0.46690096  0.53309904
   0.73606119  0.53309904  0.46690096
unknown system                          
           1
     5.768735    0.140022   -0.197717
    -0.733018    6.977777   -0.085147
     0.733018    2.236054    6.610347
   V    Fe
  17   3
Direct configuration=     5
   0.56258763  0.82787637  0.39267177
   0.43741237  0.39267177  0.82787637
   0.43741237  0.17212363  0.60732823
   0.56258763  0.60732823  0.17212363
   0.81669905  0.58078694  0.95766167
   0.18330095  0.95766167  0.58078694
   0.18330095  0.41921306  0.04233833
   0.81669905  0.04233833  0.41921306
   0.15119421  0.75081919  0.24918081
   0.84880579  0.24918081  0.75081919
   0.28128272  0.77781491  0.88592413
   0.71871728  0.88592413  0.77781491
   0.71871728  0.22218509  0.11407587
   0.28128272  0.11407587  0.22218509
  -0.00000000  0.62502240  0.62502240
   0.00000000  0.37497760  0.37497760
   0.00000000  0.00000000  0.00000000
   0.50000000  0.00000000  0.00000000
   0.28938754  0.46428585  0.53571415
   0.71061246  0.53571415  0.46428585
unknown system                          
           1
     5.624670    0.139671   -0.197221
    -0.719789    7.116517   -0.122423
     0.719789    2.246948    6.753594
   V    Fe
  17   3
Direct configuration=     6
   0.54879428  0.83096993  0.39543508
   0.45120572  0.39543508  0.83096993
   0.45120572  0.16903007  0.60456492
   0.54879428  0.60456492  0.16903007
   0.83264717  0.58090711  0.96270437
   0.16735283  0.96270437  0.58090711
   0.16735283  0.41909289  0.03729563
   0.83264717  0.03729563  0.41909289
   0.13644430  0.75169703  0.24830297
   0.86355570  0.24830297  0.75169703
   0.28489534  0.77436034  0.88318765
   0.71510466  0.88318765  0.77436034
   0.71510466  0.22563966  0.11681235
   0.28489534  0.11681235  0.22563966
  -0.00000000  0.62732386  0.62732386
   0.00000000  0.37267614  0.37267614
   0.00000000  0.00000000  0.00000000
   0.50000000  0.00000000  0.00000000
   0.30259658  0.46806347  0.53193653
   0.69740342  0.53193653  0.46806347
unknown system                          
           1
     5.566716    0.139530   -0.197022
    -0.714468    7.172327   -0.137418
     0.714468    2.251331    6.811217
   V    Fe
  17   3
Direct configuration=     7
   0.54310370  0.83219748  0.39652592
   0.45689630  0.39652592  0.83219748
   0.45689630  0.16780252  0.60347408
   0.54310370  0.60347408  0.16780252
   0.83923708  0.58096031  0.96469484
   0.16076292  0.96469484  0.58096031
   0.16076292  0.41903969  0.03530516
   0.83923708  0.03530516  0.41903969
   0.13035589  0.75204490  0.24795510
   0.86964411  0.24795510  0.75204490
   0.28638721  0.77299337  0.88210396
   0.71361279  0.88210396  0.77299337
   0.71361279  0.22700663  0.11789604
   0.28638721  0.11789604  0.22700663
  -0.00000000  0.62823488  0.62823488
   0.00000000  0.37176512  0.37176512
   0.00000000  0.00000000  0.00000000
   0.50000000  0.00000000  0.00000000
   0.30802814  0.46954020  0.53045980
   0.69197186  0.53045980  0.46954020
unknown system                          
           1
     5.486133    0.133046   -0.187867
    -0.710428    7.060562   -0.152251
     0.710428    2.200237    6.710713
   V    Fe
  17   3
Direct configuration=     8
   0.52677174  0.83510880  0.39704029
   0.47322826  0.39704029  0.83510880
   0.47322826  0.16489120  0.60295971
   0.52677174  0.60295971  0.16489120
   0.85643406  0.58460090  0.96975051
   0.14356594  0.96975051  0.58460090
   0.14356594  0.41539910  0.03024949
   0.85643406  0.03024949  0.41539910
   0.11412323  0.74936254  0.25063746
   0.88587677  0.25063746  0.74936254
   0.28647795  0.76930573  0.87869573
   0.71352205  0.87869573  0.76930573
   0.71352205  0.23069427  0.12130427
   0.28647795  0.12130427  0.23069427
  -0.00000000  0.62973953  0.62973953
   0.00000000  0.37026047  0.37026047
   0.00000000  0.00000000  0.00000000
   0.50000000  0.00000000  0.00000000
   0.30539576  0.47378067  0.52621933
   0.69460424  0.52621933  0.47378067
unknown system                          
           1
     5.487360    0.133145   -0.188006
    -0.710490    7.062264   -0.152025
     0.710490    2.201015    6.712244
   V    Fe
  17   3
Direct configuration=     9
   0.52702417  0.83506400  0.39703199
   0.47297583  0.39703199  0.83506400
   0.47297583  0.16493600  0.60296801
   0.52702417  0.60296801  0.16493600
   0.85616824  0.58454418  0.96967245
   0.14383176  0.96967245  0.58454418
   0.14383176  0.41545582  0.03032755
   0.85616824  0.03032755  0.41545582
   0.11437423  0.74940413  0.25059587
   0.88562577  0.25059587  0.74940413
   0.28647655  0.76936287  0.87874856
   0.71352345  0.87874856  0.76936287
   0.71352345  0.23063713  0.12125144
   0.28647655  0.12125144  0.23063713
  -0.00000000  0.62971621  0.62971621
   0.00000000  0.37028379  0.37028379
   0.00000000  0.00000000  0.00000000
   0.50000000  0.00000000  0.00000000
   0.30543634  0.47371532  0.52628468
   0.69456366  0.52628468  0.47371532
unknown system                          
           1
     5.631084    0.134244   -0.189558
    -0.727083    7.018032   -0.167046
     0.727083    2.172162    6.675507
   V    Fe
  17   3
Direct configuration=    10
   0.51174155  0.83789239  0.39785372
   0.48825845  0.39785372  0.83789239
   0.48825845  0.16210761  0.60214628
   0.51174155  0.60214628  0.16210761
   0.86518696  0.59194103  0.97758460
   0.13481304  0.97758460  0.59194103
   0.13481304  0.40805897  0.02241540
   0.86518696  0.02241540  0.40805897
   0.10148477  0.74671003  0.25328997
   0.89851523  0.25328997  0.74671003
   0.28832340  0.76915528  0.87189878
   0.71167660  0.87189878  0.76915528
   0.71167660  0.23084472  0.12810122
   0.28832340  0.12810122  0.23084472
  -0.00000000  0.62910013  0.62910013
   0.00000000  0.37089987  0.37089987
   0.00000000  0.00000000  0.00000000
   0.50000000  0.00000000  0.00000000
   0.29857986  0.47689943  0.52310057
   0.70142014  0.52310057  0.47689943
unknown system                          
           1
     5.715341    0.134889   -0.190468
    -0.736810    6.992102   -0.175852
     0.736810    2.155248    6.653970
   V    Fe
  17   3
Direct configuration=    11
   0.50301371  0.83955651  0.39834647
   0.49698629  0.39834647  0.83955651
   0.49698629  0.16044349  0.60165353
   0.50301371  0.60165353  0.16044349
   0.87033882  0.59631514  0.98225666
   0.12966118  0.98225666  0.59631514
   0.12966118  0.40368486  0.01774334
   0.87033882  0.01774334  0.40368486
   0.09410982  0.74512231  0.25487769
   0.90589018  0.25487769  0.74512231
   0.28939158  0.76902346  0.86786035
   0.71060842  0.86786035  0.76902346
   0.71060842  0.23097654  0.13213965
   0.28939158  0.13213965  0.23097654
  -0.00000000  0.62873608  0.62873608
   0.00000000  0.37126392  0.37126392
   0.00000000  0.00000000  0.00000000
   0.50000000  0.00000000  0.00000000
   0.29467483  0.47876975  0.52123025
   0.70532517  0.52123025  0.47876975
unknown system                          
           1
     5.883856    0.136177   -0.192288
    -0.756265    6.940241   -0.193464
     0.756265    2.121419    6.610897
   V    Fe
  17   3
Direct configuration=    12
   0.48581863  0.84289209  0.39934483
   0.51418137  0.39934483  0.84289209
   0.51418137  0.15710791  0.60065517
   0.48581863  0.60065517  0.15710791
   0.88049023  0.60510805  0.99164083
   0.11950977  0.99164083  0.60510805
   0.11950977  0.39489195  0.00835917
   0.88049023  0.00835917  0.39489195
   0.07956406  0.74193723  0.25806277
   0.92043594  0.25806277  0.74193723
   0.29151166  0.76874775  0.85975652
   0.70848834  0.85975652  0.76874775
   0.70848834  0.23125225  0.14024348
   0.29151166  0.14024348  0.23125225
  -0.00000000  0.62800458  0.62800458
   0.00000000  0.37199542  0.37199542
   0.00000000  0.00000000  0.00000000
   0.50000000  0.00000000  0.00000000
   0.28699377  0.48251482  0.51748518
   0.71300623  0.51748518  0.48251482
unknown system                          
           1
     5.975404    0.111467   -0.157395
    -0.796455    6.854892   -0.196661
     0.796455    2.090070    6.531450
   V    Fe
  17   3
Direct configuration=    13
   0.47585926  0.84483016  0.40164953
   0.52414074  0.40164953  0.84483016
   0.52414074  0.15516984  0.59835047
   0.47585926  0.59835047  0.15516984
   0.88437999  0.61238320  0.99729626
   0.11562001  0.99729626  0.61238320
   0.11562001  0.38761680  0.00270374
   0.88437999  0.00270374  0.38761680
   0.07658880  0.74345856  0.25654144
   0.92341120  0.25654144  0.74345856
   0.29387795  0.76883938  0.85417258
   0.70612205  0.85417258  0.76883938
   0.70612205  0.23116062  0.14582742
   0.29387795  0.14582742  0.23116062
  -0.00000000  0.62783208  0.62783208
   0.00000000  0.37216792  0.37216792
   0.00000000  0.00000000  0.00000000
   0.50000000  0.00000000  0.00000000
   0.28697759  0.48364567  0.51635433
   0.71302241  0.51635433  0.48364567
unknown system                          
           1
     6.058351    0.089078   -0.125781
    -0.832870    6.777562   -0.199558
     0.832870    2.061667    6.459466
   V    Fe
  17   3
Direct configuration=    14
   0.46695782  0.84655968  0.40381433
   0.53304218  0.40381433  0.84655968
   0.53304218  0.15344032  0.59618567
   0.46695782  0.59618567  0.15344032
   0.88786751  0.61907876  0.00246935
   0.11213249  0.00246935  0.61907876
   0.11213249  0.38092124 -0.00246935
   0.88786751 -0.00246935  0.38092124
   0.07395297  0.74483721  0.25516279
   0.92604703  0.25516279  0.74483721
   0.29603433  0.76892991  0.84904081
   0.70396567  0.84904081  0.76892991
   0.70396567  0.23107009  0.15095919
   0.29603433  0.15095919  0.23107009
  -0.00000000  0.62767374  0.62767374
   0.00000000  0.37232626  0.37232626
   0.00000000  0.00000000  0.00000000
   0.50000000  0.00000000  0.00000000
   0.28697990  0.48468142  0.51531858
   0.71302010  0.51531858  0.48468142
unknown system                          
           1
     6.095161    0.056818   -0.080230
    -0.875133    6.762670   -0.191487
     0.875133    2.064336    6.442739
   V    Fe
  17   3
Direct configuration=    15
   0.46553448  0.84711396  0.40584052
   0.53446552  0.40584052  0.84711396
   0.53446552  0.15288604  0.59415948
   0.46553448  0.59415948  0.15288604
   0.88459080  0.62163209  0.00241525
   0.11540920  0.00241525  0.62163209
   0.11540920  0.37836791 -0.00241525
   0.88459080 -0.00241525  0.37836791
   0.08222136  0.74937962  0.25062038
   0.91777864  0.25062038  0.74937962
   0.29797349  0.76809053  0.84668997
   0.70202651  0.84668997  0.76809053
   0.70202651  0.23190947  0.15331003
   0.29797349  0.15331003  0.23190947
  -0.00000000  0.62861269  0.62861269
   0.00000000  0.37138731  0.37138731
   0.00000000  0.00000000  0.00000000
   0.50000000  0.00000000  0.00000000
   0.29090348  0.48287041  0.51712959
   0.70909652  0.51712959  0.48287041
unknown system                          
           1
     6.205588   -0.039959    0.056424
    -1.001922    6.717992   -0.167275
     1.001922    2.072343    6.392558
   V    Fe
  17   3
Direct configuration=    16
   0.46124892  0.84874478  0.41196184
   0.53875108  0.41196184  0.84874478
   0.53875108  0.15125522  0.58803816
   0.46124892  0.58803816  0.15125522
   0.87485873  0.62924322  0.00231220
   0.12514127  0.00231220  0.62924322
   0.12514127  0.37075678 -0.00231220
   0.87485873 -0.00231220  0.37075678
   0.10712891  0.76322687  0.23677313
   0.89287109  0.23677313  0.76322687
   0.30380117  0.76561404  0.83958251
   0.69619883  0.83958251  0.76561404
   0.69619883  0.23438596  0.16041749
   0.30380117  0.16041749  0.23438596
  -0.00000000  0.63143345  0.63143345
   0.00000000  0.36856655  0.36856655
   0.00000000  0.00000000  0.00000000
   0.50000000  0.00000000  0.00000000
   0.30254560  0.47749941  0.52250059
   0.69745440  0.52250059  0.47749941
unknown system                          
           1
     6.242092   -0.071951    0.101598
    -1.043835    6.703223   -0.159272
     1.043835    2.074990    6.375969
   V    Fe
  17   3
Direct configuration=    17
   0.45981483  0.84925115  0.41402878
   0.54018517  0.41402878  0.84925115
   0.54018517  0.15074885  0.58597122
   0.45981483  0.58597122  0.15074885
   0.87173424  0.63171264  0.00233508
   0.12826576  0.00233508  0.63171264
   0.12826576  0.36828736 -0.00233508
   0.87173424 -0.00233508  0.36828736
   0.11547559  0.76802876  0.23197124
   0.88452441  0.23197124  0.76802876
   0.30574042  0.76483771  0.83717746
   0.69425958  0.83717746  0.76483771
   0.69425958  0.23516229  0.16282254
   0.30574042  0.16282254  0.23516229
  -0.00000000  0.63236980  0.63236980
   0.00000000  0.36763020  0.36763020
   0.00000000  0.00000000  0.00000000
   0.50000000  0.00000000  0.00000000
   0.30627215  0.47578291  0.52421709
   0.69372785  0.52421709  0.47578291
unknown system                          
           1
     6.329612   -0.099774    0.140885
    -1.089906    6.614966   -0.187676
     1.089906    2.018899    6.302146
   V    Fe
  17   3
Direct configuration=    18
   0.45774946  0.84590280  0.41632039
   0.54225054  0.41632039  0.84590280
   0.54225054  0.15409720  0.58367961
   0.45774946  0.58367961  0.15409720
   0.86784581  0.63039525  0.00479927
   0.13215419  0.00479927  0.63039525
   0.13215419  0.36960475 -0.00479927
   0.86784581 -0.00479927  0.36960475
   0.13262779  0.77037064  0.22962936
   0.86737221  0.22962936  0.77037064
   0.30232456  0.75908972  0.83501115
   0.69767544  0.83501115  0.75908972
   0.69767544  0.24091028  0.16498885
   0.30232456  0.16498885  0.24091028
  -0.00000000  0.63124899  0.63124899
   0.00000000  0.36875101  0.36875101
   0.00000000  0.00000000  0.00000000
   0.50000000  0.00000000  0.00000000
   0.30329891  0.47021565  0.52978435
   0.69670109  0.52978435  0.47021565
unknown system                          
           1
     6.482295   -0.148312    0.209422
    -1.170280    6.460999   -0.237228
     1.170280    1.921046    6.173360
   V    Fe
  17   3
Direct configuration=    19
   0.45410488  0.83998892  0.42035992
   0.54589512  0.42035992  0.83998892
   0.54589512  0.16001108  0.57964008
   0.45410488  0.57964008  0.16001108
   0.86108616  0.62805011  0.00917851
   0.13891384  0.00917851  0.62805011
   0.13891384  0.37194989 -0.00917851
   0.86108616 -0.00917851  0.37194989
   0.16226634  0.77465971  0.22534029
   0.83773366  0.22534029  0.77465971
   0.29638255  0.74888913  0.83117407
   0.70361745  0.83117407  0.74888913
   0.70361745  0.25111087  0.16882593
   0.29638255  0.16882593  0.25111087
  -0.00000000  0.62926100  0.62926100
   0.00000000  0.37073900  0.37073900
   0.00000000 -0.00000000  0.00000000
   0.50000000 -0.00000000  0.00000000
   0.29800730  0.46040170  0.53959830
   0.70199270  0.53959830  0.46040170
unknown system                          
           1
     6.649413   -0.156001    0.220279
    -1.207869    6.463674   -0.255216
     1.207869    1.904965    6.181855
   V    Fe
  17   3
Direct configuration=    20
   0.45576285  0.83453291  0.42263749
   0.54423715  0.42263749  0.83453291
   0.54423715  0.16546709  0.57736251
   0.45576285  0.57736251  0.16546709
   0.85944527  0.62627920  0.01658249
   0.14055473  0.01658249  0.62627920
   0.14055473  0.37372080 -0.01658249
   0.85944527 -0.01658249  0.37372080
   0.17170984  0.77106977  0.22893023
   0.82829016  0.22893023  0.77106977
   0.29338337  0.74366187  0.82870543
   0.70661663  0.82870543  0.74366187
   0.70661663  0.25633813  0.17129457
   0.29338337  0.17129457  0.25633813
  -0.00000000  0.62795040  0.62795040
   0.00000000  0.37204960  0.37204960
   0.00000000 -0.00000000  0.00000000
   0.50000000 -0.00000000  0.00000000
   0.28975135  0.44979148  0.55020852
   0.71024865  0.55020852  0.44979148
unknown system                          
           1
     6.673468   -0.157107    0.221841
    -1.213279    6.464059   -0.257806
     1.213279    1.902650    6.183078
   V    Fe
  17   3
Direct configuration=    21
   0.45599004  0.83374952  0.42296265
   0.54400996  0.42296265  0.83374952
   0.54400996  0.16625048  0.57703735
   0.45599004  0.57703735  0.16625048
   0.85920838  0.62602725  0.01764655
   0.14079162  0.01764655  0.62602725
   0.14079162  0.37397275 -0.01764655
   0.85920838 -0.01764655  0.37397275
   0.17303023  0.77055613  0.22944387
   0.82696977  0.22944387  0.77055613
   0.29296042  0.74290898  0.82834883
   0.70703958  0.82834883  0.74290898
   0.70703958  0.25709102  0.17165117
   0.29296042  0.17165117  0.25709102
  -0.00000000  0.62776145  0.62776145
   0.00000000  0.37223855  0.37223855
   0.00000000 -0.00000000  0.00000000
   0.50000000 -0.00000000  0.00000000
   0.28857734  0.44826904  0.55173096
   0.71142266  0.55173096  0.44826904
unknown system                          
           1
     6.664312   -0.141800    0.200228
    -1.197826    6.406003   -0.242585
     1.197826    1.897735    6.123262
   V    Fe
  17   3
Direct configuration=    22
   0.46024075  0.82950571  0.42571416
   0.53975925  0.42571416  0.82950571
   0.53975925  0.17049429  0.57428584
   0.46024075  0.57428584  0.17049429
   0.86005074  0.62473512  0.02577455
   0.13994926  0.02577455  0.62473512
   0.13994926  0.37526488 -0.02577455
   0.86005074 -0.02577455  0.37526488
   0.17361356  0.76576615  0.23423385
   0.82638644  0.23423385  0.76576615
   0.29239780  0.74173095  0.82769996
   0.70760220  0.82769996  0.74173095
   0.70760220  0.25826905  0.17230004
   0.29239780  0.17230004  0.25826905
  -0.00000000  0.62788050  0.62788050
   0.00000000  0.37211950  0.37211950
   0.00000000 -0.00000000  0.00000000
   0.50000000 -0.00000000  0.00000000
   0.28017220  0.43772922  0.56227078
   0.71982780  0.56227078  0.43772922
unknown system                          
           1
     6.659503   -0.133761    0.188875
    -1.189709    6.375510   -0.234591
     1.189709    1.895153    6.091844
   V    Fe
  17   3
Direct configuration=    23
   0.46247449  0.82724451  0.42718559
   0.53752551  0.42718559  0.82724451
   0.53752551  0.17275549  0.57281441
   0.46247449  0.57281441  0.17275549
   0.86049424  0.62403943  0.03008796
   0.13950576  0.03008796  0.62403943
   0.13950576  0.37596057 -0.03008796
   0.86049424 -0.03008796  0.37596057
   0.17392101  0.76321959  0.23678041
   0.82607899  0.23678041  0.76321959
   0.29210230  0.74110793  0.82735614
   0.70789770  0.82735614  0.74110793
   0.70789770  0.25889207  0.17264386
   0.29210230  0.17264386  0.25889207
  -0.00000000  0.62794350  0.62794350
   0.00000000  0.37205650  0.37205650
   0.00000000 -0.00000000  0.00000000
   0.50000000 -0.00000000  0.00000000
   0.27575902  0.43214306  0.56785694
   0.72424098  0.56785694  0.43214306
unknown system                          
           1
     6.642840   -0.123780    0.174782
    -1.176246    6.412515   -0.223695
     1.176246    1.917716    6.123133
   V    Fe
  17   3
Direct configuration=    24
   0.46594342  0.82624783  0.42917629
   0.53405658  0.42917629  0.82624783
   0.53405658  0.17375217  0.57082371
   0.46594342  0.57082371  0.17375217
   0.86322673  0.62443408  0.03290437
   0.13677327  0.03290437  0.62443408
   0.13677327  0.37556592 -0.03290437
   0.86322673 -0.03290437  0.37556592
   0.17263411  0.76200858  0.23799142
   0.82736589  0.23799142  0.76200858
   0.29461525  0.74430151  0.82930836
   0.70538475  0.82930836  0.74430151
   0.70538475  0.25569849  0.17069164
   0.29461525  0.17069164  0.25569849
  -0.00000000  0.63117643  0.63117643
   0.00000000  0.36882357  0.36882357
   0.00000000 -0.00000000  0.00000000
   0.50000000 -0.00000000  0.00000000
   0.27380721  0.42806454  0.57193546
   0.72619279  0.57193546  0.42806454
unknown system                          
           1
     6.628309   -0.115076    0.162492
    -1.164506    6.444784   -0.214193
     1.164507    1.937391    6.150417
   V    Fe
  17   3
Direct configuration=    25
   0.46898041  0.82537343  0.43091128
   0.53101959  0.43091128  0.82537343
   0.53101959  0.17462657  0.56908872
   0.46898041  0.56908872  0.17462657
   0.86561913  0.62476657  0.03535189
   0.13438087  0.03535189  0.62476657
   0.13438087  0.37523343 -0.03535189
   0.86561913 -0.03535189  0.37523343
   0.17151553  0.76095857  0.23904143
   0.82848447  0.23904143  0.76095857
   0.29680751  0.74706369  0.83100122
   0.70319249  0.83100122  0.74706369
   0.70319249  0.25293631  0.16899878
   0.29680751  0.16899878  0.25293631
  -0.00000000  0.63397538  0.63397538
   0.00000000  0.36602462  0.36602462
   0.00000000 -0.00000000  0.00000000
   0.50000000 -0.00000000  0.00000000
   0.27212093  0.42452372  0.57547628
   0.72787907  0.57547628  0.42452372
unknown system                          
           1
     6.546803   -0.108392    0.153054
    -1.144104    6.413393   -0.207015
     1.144104    1.933741    6.118424
   V    Fe
  17   3
Direct configuration=    26
   0.47038287  0.82475127  0.43317734
   0.52961713  0.43317734  0.82475127
   0.52961713  0.17524873  0.56682266
   0.47038287  0.56682266  0.17524873
   0.86873363  0.62612424  0.03479336
   0.13126637  0.03479336  0.62612424
   0.13126637  0.37387576 -0.03479336
   0.86873363 -0.03479336  0.37387576
   0.17241418  0.75877838  0.24122162
   0.82758582  0.24122162  0.75877838
   0.29993967  0.75171104  0.83393610
   0.70006033  0.83393610  0.75171104
   0.70006033  0.24828896  0.16606390
   0.29993967  0.16606390  0.24828896
  -0.00000000  0.63831332  0.63831332
   0.00000000  0.36168668  0.36168668
   0.00000000 -0.00000000  0.00000000
   0.50000000 -0.00000000  0.00000000
   0.27235034  0.42483065  0.57516935
   0.72764966  0.57516935  0.42483065
unknown system                          
           1
     6.561033   -0.109559    0.154701
    -1.147666    6.418873   -0.208269
     1.147666    1.934378    6.124009
   V    Fe
  17   3
Direct configuration=    27
   0.47013405  0.82486111  0.43277930
   0.52986595  0.43277930  0.82486111
   0.52986595  0.17513889  0.56722070
   0.47013405  0.56722070  0.17513889
   0.86818404  0.62588656  0.03489094
   0.13181596  0.03489094  0.62588656
   0.13181596  0.37411344 -0.03489094
   0.86818404 -0.03489094  0.37411344
   0.17225384  0.75916151  0.24083849
   0.82774616  0.24083849  0.75916151
   0.29938688  0.75089666  0.83342120
   0.70061312  0.83342120  0.75089666
   0.70061312  0.24910334  0.16657880
   0.29938688  0.16657880  0.24910334
  -0.00000000  0.63755281  0.63755281
   0.00000000  0.36244719  0.36244719
   0.00000000 -0.00000000  0.00000000
   0.50000000 -0.00000000  0.00000000
   0.27231003  0.42477679  0.57522321
   0.72768997  0.57522321  0.42477679
unknown system                          
           1
     6.575191   -0.109476    0.154584
    -1.149726    6.435101   -0.210818
     1.149726    1.937360    6.140164
   V    Fe
  17   3
Direct configuration=    28
   0.46911588  0.82426602  0.43436865
   0.53088412  0.43436865  0.82426602
   0.53088412  0.17573398  0.56563135
   0.46911588  0.56563135  0.17573398
   0.86941217  0.62720880  0.03281618
   0.13058783  0.03281618  0.62720880
   0.13058783  0.37279120 -0.03281618
   0.86941217 -0.03281618  0.37279120
   0.17371530  0.75610941  0.24389059
   0.82628470  0.24389059  0.75610941
   0.30051795  0.75358183  0.83562605
   0.69948205  0.83562605  0.75358183
   0.69948205  0.24641817  0.16437395
   0.30051795  0.16437395  0.24641817
  -0.00000000  0.63985315  0.63985315
   0.00000000  0.36014685  0.36014685
   0.00000000 -0.00000000  0.00000000
   0.50000000 -0.00000000  0.00000000
   0.27339618  0.42762072  0.57237928
   0.72660382  0.57237928  0.42762072
unknown system                          
           1
     6.577094   -0.109465    0.154569
    -1.150003    6.437281   -0.211161
     1.150003    1.937761    6.142334
   V    Fe
  17   3
Direct configuration=    29
   0.46897944  0.82418636  0.43458159
   0.53102056  0.43458159  0.82418636
   0.53102056  0.17581364  0.56541841
   0.46897944  0.56541841  0.17581364
   0.86957673  0.62738588  0.03253823
   0.13042327  0.03253823  0.62738589
   0.13042327  0.37261412 -0.03253823
   0.86957673 -0.03253823  0.37261411
   0.17391139  0.75570054  0.24429946
   0.82608861  0.24429946  0.75570054
   0.30066957  0.75394173  0.83592164
   0.69933043  0.83592164  0.75394173
   0.69933043  0.24605827  0.16407836
   0.30066957  0.16407836  0.24605827
  -0.00000000  0.64016150  0.64016150
   0.00000000  0.35983850  0.35983850
   0.00000000 -0.00000000  0.00000000
   0.50000000 -0.00000000  0.00000000
   0.27354164  0.42800168  0.57199832
   0.72645836  0.57199832  0.42800168
unknown system                          
           1
     6.580705   -0.110250    0.155677
    -1.151588    6.422792   -0.215038
     1.151589    1.929294    6.129954
   V    Fe
  17   3
Direct configuration=    30
   0.46782698  0.82326711  0.43577206
   0.53217302  0.43577206  0.82326711
   0.53217302  0.17673289  0.56422794
   0.46782698  0.56422794  0.17673289
   0.86906379  0.62750653  0.03251520
   0.13093621  0.03251520  0.62750653
   0.13093621  0.37249347 -0.03251520
   0.86906379 -0.03251520  0.37249347
   0.17342954  0.75359323  0.24640677
   0.82657046  0.24640677  0.75359323
   0.29978141  0.75388933  0.83740395
   0.70021859  0.83740395  0.75388933
   0.70021859  0.24611067  0.16259605
   0.29978141  0.16259605  0.24611067
  -0.00000000  0.63987181  0.63987181
   0.00000000  0.36012819  0.36012819
   0.00000000 -0.00000000  0.00000000
   0.50000000 -0.00000000  0.00000000
   0.27351567  0.42904488  0.57095512
   0.72648433  0.57095512  0.42904488
unknown system                          
           1
     6.583866   -0.110937    0.156647
    -1.152976    6.410113   -0.218430
     1.152976    1.921885    6.119119
   V    Fe
  17   3
Direct configuration=    31
   0.46681806  0.82246155  0.43681561
   0.53318194  0.43681561  0.82246155
   0.53318194  0.17753845  0.56318439
   0.46681806  0.56318439  0.17753845
   0.86861519  0.62761225  0.03249516
   0.13138481  0.03249516  0.62761225
   0.13138481  0.37238775 -0.03249516
   0.86861519 -0.03249516  0.37238775
   0.17300630  0.75174650  0.24825350
   0.82699370  0.24825350  0.75174650
   0.29900391  0.75384415  0.83870392
   0.70099609  0.83870392  0.75384415
   0.70099609  0.24615585  0.16129608