  20  20   0   0
  0.1295360E+02  0.7567114E-09  0.7768847E-09  0.4406905E-09  0.5000000E-15
  1.000000000000000E-004
  CAR 
 unknown system                          
      8.36223232     -1.68135181  301      6.21677750      1.00000000
     -1.681  0.0000E+00  0.0000E+00
     -1.648  0.0000E+00  0.0000E+00
     -1.614  0.0000E+00  0.0000E+00
     -1.581  0.0000E+00  0.0000E+00
     -1.547  0.0000E+00  0.0000E+00
     -1.514  0.0000E+00  0.0000E+00
     -1.480  0.0000E+00  0.0000E+00
     -1.447  0.0000E+00  0.0000E+00
     -1.414  0.0000E+00  0.0000E+00
     -1.380  0.0000E+00  0.0000E+00
     -1.347  0.0000E+00  0.0000E+00
     -1.313  0.0000E+00  0.0000E+00
     -1.280  0.0000E+00  0.0000E+00
     -1.246  0.6632E-17  0.2220E-18
     -1.213  0.2797E-15  0.9585E-17
     -1.179  0.9267E-14  0.3198E-15
     -1.146  0.2464E-12  0.8569E-14
     -1.112  0.5249E-11  0.1843E-12
     -1.079  0.8963E-10  0.3185E-11
     -1.045  0.1227E-08  0.4425E-10
     -1.012  0.1346E-07  0.4948E-09
     -0.978  0.1184E-06  0.4459E-08
     -0.945  0.8352E-06  0.3242E-07
     -0.911  0.4725E-05  0.1906E-06
     -0.878  0.2144E-04  0.9084E-06
     -0.844  0.7806E-04  0.3522E-05
     -0.811  0.2280E-03  0.1115E-04
     -0.777  0.5342E-03  0.2904E-04
     -0.744  0.1005E-02  0.6267E-04
     -0.710  0.1516E-02  0.1134E-03
     -0.677  0.1835E-02  0.1749E-03
     -0.644  0.1784E-02  0.2346E-03
     -0.610  0.1392E-02  0.2812E-03
     -0.577  0.8778E-03  0.3106E-03
     -0.543  0.4686E-03  0.3263E-03
     -0.510  0.2837E-03  0.3358E-03
     -0.476  0.3524E-03  0.3476E-03
     -0.443  0.6659E-03  0.3699E-03
     -0.409  0.1155E-02  0.4085E-03
     -0.376  0.1635E-02  0.4632E-03
     -0.342  0.1862E-02  0.5256E-03
     -0.309  0.1701E-02  0.5825E-03
     -0.275  0.1248E-02  0.6243E-03
     -0.242  0.7346E-03  0.6489E-03
     -0.208  0.3471E-03  0.6605E-03
     -0.175  0.1319E-03  0.6649E-03
     -0.141  0.4263E-04  0.6664E-03
     -0.108  0.2313E-04  0.6671E-03
     -0.074  0.5664E-04  0.6690E-03
     -0.041  0.1819E-03  0.6751E-03
     -0.007  0.4897E-03  0.6915E-03
      0.026  0.1077E-02  0.7276E-03
      0.060  0.1943E-02  0.7926E-03
      0.093  0.2892E-02  0.8895E-03
      0.126  0.3606E-02  0.1010E-02
      0.160  0.3889E-02  0.1140E-02
      0.193  0.3889E-02  0.1271E-02
      0.227  0.4022E-02  0.1405E-02
      0.260  0.4615E-02  0.1560E-02
      0.294  0.5580E-02  0.1747E-02
      0.327  0.6428E-02  0.1962E-02
      0.361  0.6599E-02  0.2183E-02
      0.394  0.5919E-02  0.2381E-02
      0.428  0.4801E-02  0.2542E-02
      0.461  0.3994E-02  0.2675E-02
      0.495  0.4023E-02  0.2810E-02
      0.528  0.4752E-02  0.2969E-02
      0.562  0.5462E-02  0.3152E-02
      0.595  0.5412E-02  0.3333E-02
      0.629  0.4422E-02  0.3481E-02
      0.662  0.2942E-02  0.3580E-02
      0.696  0.1593E-02  0.3633E-02
      0.729  0.7290E-03  0.3657E-02
      0.763  0.3746E-03  0.3670E-02
      0.796  0.4234E-03  0.3684E-02
      0.830  0.7910E-03  0.3711E-02
      0.863  0.1413E-02  0.3758E-02
      0.897  0.2216E-02  0.3832E-02
      0.930  0.3169E-02  0.3938E-02
      0.963  0.4336E-02  0.4083E-02
      0.997  0.5758E-02  0.4276E-02
      1.030  0.7305E-02  0.4521E-02
      1.064  0.8783E-02  0.4815E-02
      1.097  0.1016E-01  0.5155E-02
      1.131  0.1147E-01  0.5539E-02
      1.164  0.1243E-01  0.5955E-02
      1.198  0.1244E-01  0.6372E-02
      1.231  0.1114E-01  0.6745E-02
      1.265  0.8945E-02  0.7044E-02
      1.298  0.6782E-02  0.7271E-02
      1.332  0.5374E-02  0.7451E-02
      1.365  0.4692E-02  0.7609E-02
      1.399  0.4177E-02  0.7748E-02
      1.432  0.3424E-02  0.7863E-02
      1.466  0.2585E-02  0.7950E-02
      1.499  0.2171E-02  0.8022E-02
      1.533  0.2571E-02  0.8108E-02
      1.566  0.3703E-02  0.8232E-02
      1.600  0.4985E-02  0.8399E-02
      1.633  0.5710E-02  0.8590E-02
      1.667  0.5637E-02  0.8779E-02
      1.700  0.5283E-02  0.8956E-02
      1.733  0.5516E-02  0.9141E-02
      1.767  0.6741E-02  0.9366E-02
      1.800  0.8482E-02  0.9650E-02
      1.834  0.9723E-02  0.9976E-02
      1.867  0.9670E-02  0.1030E-01
      1.901  0.8252E-02  0.1058E-01
      1.934  0.6072E-02  0.1078E-01
      1.968  0.4016E-02  0.1091E-01
      2.001  0.2857E-02  0.1101E-01
      2.035  0.3063E-02  0.1111E-01
      2.068  0.4766E-02  0.1127E-01
      2.102  0.7736E-02  0.1153E-01
      2.135  0.1132E-01  0.1191E-01
      2.169  0.1459E-01  0.1240E-01
      2.202  0.1682E-01  0.1296E-01
      2.236  0.1786E-01  0.1356E-01
      2.269  0.1798E-01  0.1416E-01
      2.303  0.1747E-01  0.1475E-01
      2.336  0.1670E-01  0.1530E-01
      2.370  0.1627E-01  0.1585E-01
      2.403  0.1677E-01  0.1641E-01
      2.437  0.1825E-01  0.1702E-01
      2.470  0.2022E-01  0.1770E-01
      2.503  0.2224E-01  0.1844E-01
      2.537  0.2431E-01  0.1926E-01
      2.570  0.2656E-01  0.2015E-01
      2.604  0.2878E-01  0.2111E-01
      2.637  0.3034E-01  0.2212E-01
      2.671  0.3060E-01  0.2315E-01
      2.704  0.2937E-01  0.2413E-01
      2.738  0.2719E-01  0.2504E-01
      2.771  0.2516E-01  0.2588E-01
      2.805  0.2446E-01  0.2670E-01
      2.838  0.2574E-01  0.2757E-01
      2.872  0.2895E-01  0.2853E-01
      2.905  0.3355E-01  0.2966E-01
      2.939  0.3881E-01  0.3096E-01
      2.972  0.4398E-01  0.3243E-01
      3.006  0.4856E-01  0.3406E-01
      3.039  0.5243E-01  0.3581E-01
      3.073  0.5580E-01  0.3768E-01
      3.106  0.5859E-01  0.3964E-01
      3.140  0.6019E-01  0.4166E-01
      3.173  0.5989E-01  0.4366E-01
      3.207  0.5783E-01  0.4560E-01
      3.240  0.5525E-01  0.4745E-01
      3.273  0.5393E-01  0.4925E-01
      3.307  0.5524E-01  0.5110E-01
      3.340  0.5929E-01  0.5309E-01
      3.374  0.6443E-01  0.5524E-01
      3.407  0.6799E-01  0.5752E-01
      3.441  0.6796E-01  0.5979E-01
      3.474  0.6431E-01  0.6195E-01
      3.508  0.5883E-01  0.6392E-01
      3.541  0.5380E-01  0.6572E-01
      3.575  0.5066E-01  0.6741E-01
      3.608  0.4933E-01  0.6907E-01
      3.642  0.4871E-01  0.7070E-01
      3.675  0.4787E-01  0.7230E-01
      3.709  0.4673E-01  0.7386E-01
      3.742  0.4584E-01  0.7540E-01
      3.776  0.4560E-01  0.7692E-01
      3.809  0.4620E-01  0.7847E-01
      3.843  0.4788E-01  0.8007E-01
      3.876  0.5073E-01  0.8177E-01
      3.910  0.5394E-01  0.8358E-01
      3.943  0.5603E-01  0.8545E-01
      3.977  0.5584E-01  0.8732E-01
      4.010  0.5333E-01  0.8911E-01
      4.043  0.4932E-01  0.9076E-01
      4.077  0.4498E-01  0.9227E-01
      4.110  0.4164E-01  0.9366E-01
      4.144  0.4085E-01  0.9503E-01
      4.177  0.4366E-01  0.9649E-01
      4.211  0.4944E-01  0.9815E-01
      4.244  0.5561E-01  0.1000E+00
      4.278  0.5925E-01  0.1020E+00
      4.311  0.5939E-01  0.1040E+00
      4.345  0.5755E-01  0.1059E+00
      4.378  0.5580E-01  0.1078E+00
      4.412  0.5457E-01  0.1096E+00
      4.445  0.5283E-01  0.1114E+00
      4.479  0.4998E-01  0.1130E+00
      4.512  0.4685E-01  0.1146E+00
      4.546  0.4494E-01  0.1161E+00
      4.579  0.4532E-01  0.1176E+00
      4.613  0.4849E-01  0.1193E+00
      4.646  0.5421E-01  0.1211E+00
      4.680  0.6105E-01  0.1231E+00
      4.713  0.6649E-01  0.1253E+00
      4.747  0.6870E-01  0.1276E+00
      4.780  0.6834E-01  0.1299E+00
      4.813  0.6775E-01  0.1322E+00
      4.847  0.6830E-01  0.1345E+00
      4.880  0.6873E-01  0.1368E+00
      4.914  0.6669E-01  0.1390E+00
      4.947  0.6174E-01  0.1411E+00
      4.981  0.5605E-01  0.1430E+00
      5.014  0.5246E-01  0.1447E+00
      5.048  0.5219E-01  0.1465E+00
      5.081  0.5450E-01  0.1483E+00
      5.115  0.5775E-01  0.1502E+00
      5.148  0.6065E-01  0.1523E+00
      5.182  0.6311E-01  0.1544E+00
      5.215  0.6621E-01  0.1566E+00
      5.249  0.7115E-01  0.1590E+00
      5.282  0.7733E-01  0.1616E+00
      5.316  0.8197E-01  0.1643E+00
      5.349  0.8216E-01  0.1670E+00
      5.383  0.7754E-01  0.1696E+00
      5.416  0.7076E-01  0.1720E+00
      5.450  0.6520E-01  0.1742E+00
      5.483  0.6255E-01  0.1763E+00
      5.517  0.6228E-01  0.1784E+00
      5.550  0.6292E-01  0.1805E+00
      5.584  0.6358E-01  0.1826E+00
      5.617  0.6438E-01  0.1848E+00
      5.650  0.6567E-01  0.1870E+00
      5.684  0.6698E-01  0.1892E+00
      5.717  0.6707E-01  0.1915E+00
      5.751  0.6514E-01  0.1936E+00
      5.784  0.6180E-01  0.1957E+00
      5.818  0.5858E-01  0.1977E+00
      5.851  0.5661E-01  0.1996E+00
      5.885  0.5607E-01  0.2014E+00
      5.918  0.5649E-01  0.2033E+00
      5.952  0.5714E-01  0.2052E+00
      5.985  0.5705E-01  0.2072E+00
      6.019  0.5537E-01  0.2090E+00
      6.052  0.5192E-01  0.2107E+00
      6.086  0.4756E-01  0.2123E+00
      6.119  0.4380E-01  0.2138E+00
      6.153  0.4197E-01  0.2152E+00
      6.186  0.4251E-01  0.2166E+00
      6.220  0.4483E-01  0.2181E+00
      6.253  0.4785E-01  0.2197E+00
      6.287  0.5075E-01  0.2214E+00
      6.320  0.5316E-01  0.2232E+00
      6.354  0.5464E-01  0.2250E+00
      6.387  0.5470E-01  0.2269E+00
      6.420  0.5355E-01  0.2287E+00
      6.454  0.5226E-01  0.2304E+00
      6.487  0.5168E-01  0.2321E+00
      6.521  0.5178E-01  0.2339E+00
      6.554  0.5203E-01  0.2356E+00
      6.588  0.5236E-01  0.2374E+00
      6.621  0.5325E-01  0.2392E+00
      6.655  0.5505E-01  0.2410E+00
      6.688  0.5740E-01  0.2429E+00
      6.722  0.5913E-01  0.2449E+00
      6.755  0.5903E-01  0.2469E+00
      6.789  0.5677E-01  0.2488E+00
      6.822  0.5334E-01  0.2506E+00
      6.856  0.5043E-01  0.2522E+00
      6.889  0.4934E-01  0.2539E+00
      6.923  0.5024E-01  0.2556E+00
      6.956  0.5208E-01  0.2573E+00
      6.990  0.5309E-01  0.2591E+00
      7.023  0.5166E-01  0.2608E+00
      7.057  0.4741E-01  0.2624E+00
      7.090  0.4172E-01  0.2638E+00
      7.124  0.3672E-01  0.2650E+00
      7.157  0.3382E-01  0.2662E+00
      7.190  0.3291E-01  0.2673E+00
      7.224  0.3247E-01  0.2684E+00
      7.257  0.3057E-01  0.2694E+00
      7.291  0.2619E-01  0.2703E+00
      7.324  0.1999E-01  0.2709E+00
      7.358  0.1367E-01  0.2714E+00
      7.391  0.8553E-02  0.2717E+00
      7.425  0.4957E-02  0.2718E+00
      7.458  0.2625E-02  0.2719E+00
      7.492  0.1228E-02  0.2720E+00
      7.525  0.4894E-03  0.2720E+00
      7.559  0.1618E-03  0.2720E+00
      7.592  0.4365E-04  0.2720E+00
      7.626  0.9534E-05  0.2720E+00
      7.659  0.1678E-05  0.2720E+00
      7.693  0.2373E-06  0.2720E+00
      7.726  0.2695E-07  0.2720E+00
      7.760  0.2455E-08  0.2720E+00
      7.793  0.1793E-09  0.2720E+00
      7.827  0.1050E-10  0.2720E+00
      7.860  0.4928E-12  0.2720E+00
      7.894  0.1853E-13  0.2720E+00
      7.927  0.5593E-15  0.2720E+00
      7.960  0.1326E-16  0.2720E+00
      7.994  0.0000E+00  0.2720E+00
      8.027  0.0000E+00  0.2720E+00
      8.061  0.0000E+00  0.2720E+00
      8.094  0.0000E+00  0.2720E+00
      8.128  0.0000E+00  0.2720E+00
      8.161  0.0000E+00  0.2720E+00
      8.195  0.0000E+00  0.2720E+00
      8.228  0.0000E+00  0.2720E+00
      8.262  0.0000E+00  0.2720E+00
      8.295  0.0000E+00  0.2720E+00
      8.329  0.0000E+00  0.2720E+00
      8.362  0.0000E+00  0.2720E+00
