   20   20  500    1
  0.1295360E+02  0.7567114E-09  0.7768847E-09  0.4406905E-09  0.5000000E-15
  1.000000000000000E-004
  CAR 
 unknown system                          
    109      8     68
 
  0.0000000E+00  0.0000000E+00  0.0000000E+00  0.8333333E-01
    1       -0.681352   1.000000
    2        1.125922   1.000000
    3        1.599977   1.000000
    4        2.095411   1.000000
    5        2.279417   1.000000
    6        2.558513   1.000000
    7        2.690508   1.000000
    8        2.708055   1.000000
    9        2.980149   1.000000
   10        3.130903   1.000000
   11        3.185095   1.000000
   12        3.208493   1.000000
   13        3.239512   1.000000
   14        3.272969   1.000000
   15        3.347778   1.000000
   16        3.536939   1.000000
   17        3.688572   1.000000
   18        3.713522   1.000000
   19        3.871463   1.000000
   20        3.945233   1.000000
   21        4.002194   1.000000
   22        4.011119   1.000000
   23        4.106498   1.000000
   24        4.142853   1.000000
   25        4.264790   1.000000
   26        4.370363   1.000000
   27        4.372955   1.000000
   28        4.385760   1.000000
   29        4.386195   1.000000
   30        4.472437   1.000000
   31        4.567765   1.000000
   32        4.680195   1.000000
   33        4.859148   1.000000
   34        4.878408   1.000000
   35        4.882095   1.000000
   36        4.978468   1.000000
   37        5.045411   1.000000
   38        5.167796   1.000000
   39        5.181529   1.000000
   40        5.276237   1.000000
   41        5.292388   1.000000
   42        5.295166   1.000000
   43        5.323705   1.000000
   44        5.500074   1.000000
   45        5.569978   1.000000
   46        5.593966   1.000000
   47        5.597293   1.000000
   48        5.612559   1.000000
   49        5.977960   0.999634
   50        5.985336   0.999468
   51        5.999069   0.998961
   52        6.086189   0.967612
   53        6.149982   0.827577
   54        6.336996   0.044552
   55        6.348910   0.030837
   56        6.359540   0.021745
   57        6.362724   0.019509
   58        6.487992   0.000063
   59        6.594016   0.000000
   60        6.616752   0.000000
   61        6.678800   0.000000
   62        6.789449   0.000000
   63        6.959467   0.000000
   64        6.980502   0.000000
   65        7.107127   0.000000
   66        7.144901   0.000000
   67        7.220262   0.000000
   68        7.260729   0.000000
 
  0.5000000E+00  0.0000000E+00  0.0000000E+00  0.8333333E-01
    1        0.101669   1.000000
    2        0.272163   1.000000
    3        1.796673   1.000000
    4        1.841383   1.000000
    5        2.144716   1.000000
    6        2.309497   1.000000
    7        2.406574   1.000000
    8        2.947761   1.000000
    9        3.016618   1.000000
   10        3.141213   1.000000
   11        3.144141   1.000000
   12        3.262307   1.000000
   13        3.354238   1.000000
   14        3.405145   1.000000
   15        3.438042   1.000000
   16        3.581433   1.000000
   17        3.762720   1.000000
   18        3.771503   1.000000
   19        3.842530   1.000000
   20        3.972021   1.000000
   21        4.009393   1.000000
   22        4.073703   1.000000
   23        4.086561   1.000000
   24        4.117934   1.000000
   25        4.197447   1.000000
   26        4.240435   1.000000
   27        4.267309   1.000000
   28        4.661827   1.000000
   29        4.684416   1.000000
   30        4.713550   1.000000
   31        4.744977   1.000000
   32        4.796959   1.000000
   33        4.864421   1.000000
   34        4.873604   1.000000
   35        4.897261   1.000000
   36        4.952801   1.000000
   37        5.063344   1.000000
   38        5.128609   1.000000
   39        5.187436   1.000000
   40        5.193245   1.000000
   41        5.299763   1.000000
   42        5.351731   1.000000
   43        5.368083   1.000000
   44        5.499407   1.000000
   45        5.519152   1.000000
   46        5.527987   1.000000
   47        5.678517   1.000000
   48        5.828895   1.000000
   49        5.848079   1.000000
   50        5.870210   1.000000
   51        5.893685   0.999998
   52        5.954730   0.999895
   53        5.975426   0.999679
   54        6.120169   0.914070
   55        6.238651   0.378531
   56        6.276783   0.198049
   57        6.462926   0.000250
   58        6.556922   0.000001
   59        6.559087   0.000001
   60        6.635131   0.000000
   61        6.652669   0.000000
   62        6.687450   0.000000
   63        6.725500   0.000000
   64        6.757242   0.000000
   65        6.894514   0.000000
   66        7.032393   0.000000
   67        7.097806   0.000000
   68        7.263132   0.000000
 
  0.0000000E+00  0.5000000E+00  0.0000000E+00  0.8333333E-01
    1       -0.355886   1.000000
    2        0.149819   1.000000
    3        2.181011   1.000000
    4        2.314042   1.000000
    5        2.558181   1.000000
    6        2.574745   1.000000
    7        2.657254   1.000000
    8        2.979985   1.000000
    9        3.028953   1.000000
   10        3.209219   1.000000
   11        3.217898   1.000000
   12        3.229948   1.000000
   13        3.339960   1.000000
   14        3.362890   1.000000
   15        3.450779   1.000000
   16        3.490811   1.000000
   17        3.491422   1.000000
   18        3.569740   1.000000
   19        3.588191   1.000000
   20        3.635029   1.000000
   21        3.645643   1.000000
   22        3.961249   1.000000
   23        3.985683   1.000000
   24        4.121337   1.000000
   25        4.151659   1.000000
   26        4.251187   1.000000
   27        4.366271   1.000000
   28        4.400625   1.000000
   29        4.430251   1.000000
   30        4.532470   1.000000
   31        4.548917   1.000000
   32        4.657169   1.000000
   33        4.768545   1.000000
   34        4.884132   1.000000
   35        4.952015   1.000000
   36        4.979441   1.000000
   37        5.030038   1.000000
   38        5.063284   1.000000
   39        5.231539   1.000000
   40        5.275762   1.000000
   41        5.326793   1.000000
   42        5.353399   1.000000
   43        5.395270   1.000000
   44        5.555153   1.000000
   45        5.593417   1.000000
   46        5.615747   1.000000
   47        5.629683   1.000000
   48        6.007638   0.998450
   49        6.048593   0.991308
   50        6.060107   0.986642
   51        6.084680   0.969129
   52        6.111375   0.931969
   53        6.120417   0.913518
   54        6.170653   0.742895
   55        6.195112   0.620351
   56        6.366533   0.017093
   57        6.446007   0.000594
   58        6.488726   0.000060
   59        6.659864   0.000000
   60        6.682223   0.000000
   61        6.733472   0.000000
   62        6.819779   0.000000
   63        6.902865   0.000000
   64        6.981445   0.000000
   65        7.015720   0.000000
   66        7.171025   0.000000
   67        7.235502   0.000000
   68        7.252225   0.000000
 
  0.5000000E+00  0.5000000E+00  0.0000000E+00  0.8333333E-01
    1        0.379121   1.000000
    2        0.542337   1.000000
    3        0.910285   1.000000
    4        1.031434   1.000000
    5        2.623614   1.000000
    6        2.951286   1.000000
    7        3.046828   1.000000
    8        3.099191   1.000000
    9        3.116138   1.000000
   10        3.158797   1.000000
   11        3.268011   1.000000
   12        3.332971   1.000000
   13        3.358240   1.000000
   14        3.416906   1.000000
   15        3.416954   1.000000
   16        3.448418   1.000000
   17        3.540958   1.000000
   18        3.580326   1.000000
   19        3.706264   1.000000
   20        3.799744   1.000000
   21        3.942836   1.000000
   22        3.980199   1.000000
   23        4.043362   1.000000
   24        4.196334   1.000000
   25        4.197105   1.000000
   26        4.208996   1.000000
   27        4.280132   1.000000
   28        4.498036   1.000000
   29        4.506078   1.000000
   30        4.710566   1.000000
   31        4.782015   1.000000
   32        4.868824   1.000000
   33        4.880875   1.000000
   34        4.888106   1.000000
   35        4.909861   1.000000
   36        4.941512   1.000000
   37        5.109209   1.000000
   38        5.114032   1.000000
   39        5.190468   1.000000
   40        5.268597   1.000000
   41        5.333803   1.000000
   42        5.401190   1.000000
   43        5.456788   1.000000
   44        5.491575   1.000000
   45        5.515401   1.000000
   46        5.562986   1.000000
   47        5.564830   1.000000
   48        5.690471   1.000000
   49        5.728597   1.000000
   50        5.789612   1.000000
   51        5.853433   1.000000
   52        5.960508   0.999855
   53        6.000935   0.998865
   54        6.021077   0.997177
   55        6.231048   0.420033
   56        6.351957   0.027955
   57        6.422546   0.001807
   58        6.464373   0.000231
   59        6.515435   0.000012
   60        6.567859   0.000000
   61        6.568616   0.000000
   62        6.700744   0.000000
   63        6.772496   0.000000
   64        6.903348   0.000000
   65        6.942990   0.000000
   66        6.953589   0.000000
   67        7.025886   0.000000
   68        7.116404   0.000000
 
  0.0000000E+00  0.0000000E+00  0.3333333E+00  0.1666667E+00
    1        0.338427   1.000000
    2        1.627294   1.000000
    3        2.251759   1.000000
    4        2.398219   1.000000
    5        2.460509   1.000000
    6        2.466904   1.000000
    7        2.713634   1.000000
    8        2.893671   1.000000
    9        2.955514   1.000000
   10        3.151516   1.000000
   11        3.154673   1.000000
   12        3.244776   1.000000
   13        3.260046   1.000000
   14        3.307003   1.000000
   15        3.428909   1.000000
   16        3.481867   1.000000
   17        3.588956   1.000000
   18        3.633279   1.000000
   19        3.663388   1.000000
   20        3.867168   1.000000
   21        3.904748   1.000000
   22        3.913350   1.000000
   23        3.944324   1.000000
   24        4.221317   1.000000
   25        4.247229   1.000000
   26        4.258395   1.000000
   27        4.290038   1.000000
   28        4.411885   1.000000
   29        4.453516   1.000000
   30        4.592583   1.000000
   31        4.647085   1.000000
   32        4.731573   1.000000
   33        4.739660   1.000000
   34        4.836476   1.000000
   35        4.864309   1.000000
   36        4.881842   1.000000
   37        5.036841   1.000000
   38        5.156484   1.000000
   39        5.164071   1.000000
   40        5.168587   1.000000
   41        5.264232   1.000000
   42        5.313593   1.000000
   43        5.318444   1.000000
   44        5.424064   1.000000
   45        5.451934   1.000000
   46        5.603559   1.000000
   47        5.669982   1.000000
   48        5.712167   1.000000
   49        5.729203   1.000000
   50        5.796503   1.000000
   51        5.807248   1.000000
   52        5.944401   0.999941
   53        5.979949   0.999595
   54        6.038673   0.994112
   55        6.184150   0.677751
   56        6.276685   0.198436
   57        6.359114   0.022060
   58        6.499880   0.000031
   59        6.578396   0.000000
   60        6.583727   0.000000
   61        6.697435   0.000000
   62        6.717971   0.000000
   63        6.861324   0.000000
   64        6.873583   0.000000
   65        6.989650   0.000000
   66        6.999438   0.000000
   67        7.067742   0.000000
   68        7.236530   0.000000
 
  0.5000000E+00  0.0000000E+00  0.3333333E+00  0.1666667E+00
    1        1.038648   1.000000
    2        1.189978   1.000000
    3        2.179843   1.000000
    4        2.295504   1.000000
    5        2.619067   1.000000
    6        2.644999   1.000000
    7        2.672123   1.000000
    8        2.779271   1.000000
    9        2.928162   1.000000
   10        2.989154   1.000000
   11        3.070496   1.000000
   12        3.070569   1.000000
   13        3.265204   1.000000
   14        3.377693   1.000000
   15        3.396314   1.000000
   16        3.465624   1.000000
   17        3.534223   1.000000
   18        3.668194   1.000000
   19        3.783618   1.000000
   20        3.794867   1.000000
   21        3.899580   1.000000
   22        3.941425   1.000000
   23        4.042543   1.000000
   24        4.180533   1.000000
   25        4.278629   1.000000
   26        4.404660   1.000000
   27        4.411791   1.000000
   28        4.412830   1.000000
   29        4.444266   1.000000
   30        4.567223   1.000000
   31        4.589350   1.000000
   32        4.674184   1.000000
   33        4.701764   1.000000
   34        4.887597   1.000000
   35        4.910156   1.000000
   36        5.004531   1.000000
   37        5.063781   1.000000
   38        5.102382   1.000000
   39        5.170162   1.000000
   40        5.202231   1.000000
   41        5.261064   1.000000
   42        5.323652   1.000000
   43        5.356786   1.000000
   44        5.371019   1.000000
   45        5.397913   1.000000
   46        5.651904   1.000000
   47        5.687361   1.000000
   48        5.716244   1.000000
   49        5.764969   1.000000
   50        5.800261   1.000000
   51        5.861481   1.000000
   52        5.884667   0.999999
   53        5.903739   0.999995
   54        5.919821   0.999987
   55        6.135047   0.876128
   56        6.332059   0.051517
   57        6.363156   0.019221
   58        6.400319   0.004720
   59        6.494672   0.000042
   60        6.637333   0.000000
   61        6.669088   0.000000
   62        6.746530   0.000000
   63        6.779498   0.000000
   64        6.822876   0.000000
   65        6.872802   0.000000
   66        6.958044   0.000000
   67        7.129939   0.000000
   68        7.257598   0.000000
 
  0.0000000E+00  0.5000000E+00  0.3333333E+00  0.1666667E+00
    1        0.574701   1.000000
    2        1.151720   1.000000
    3        2.169711   1.000000
    4        2.487970   1.000000
    5        2.548059   1.000000
    6        2.833721   1.000000
    7        2.889498   1.000000
    8        2.980505   1.000000
    9        3.024327   1.000000
   10        3.054099   1.000000
   11        3.088945   1.000000
   12        3.136317   1.000000
   13        3.145401   1.000000
   14        3.352415   1.000000
   15        3.417677   1.000000
   16        3.421329   1.000000
   17        3.495214   1.000000
   18        3.577974   1.000000
   19        3.634607   1.000000
   20        3.761681   1.000000
   21        3.853503   1.000000
   22        3.938875   1.000000
   23        4.026012   1.000000
   24        4.070355   1.000000
   25        4.080985   1.000000
   26        4.252487   1.000000
   27        4.281570   1.000000
   28        4.305683   1.000000
   29        4.472397   1.000000
   30        4.679804   1.000000
   31        4.702609   1.000000
   32        4.707290   1.000000
   33        4.747271   1.000000
   34        4.771725   1.000000
   35        4.886466   1.000000
   36        4.891692   1.000000
   37        5.057984   1.000000
   38        5.100042   1.000000
   39        5.139747   1.000000
   40        5.273145   1.000000
   41        5.314200   1.000000
   42        5.329394   1.000000
   43        5.464219   1.000000
   44        5.477071   1.000000
   45        5.506571   1.000000
   46        5.530977   1.000000
   47        5.617550   1.000000
   48        5.664976   1.000000
   49        5.709404   1.000000
   50        5.739231   1.000000
   51        5.848970   1.000000
   52        6.024206   0.996769
   53        6.046826   0.991880
   54        6.202272   0.581268
   55        6.230342   0.423936
   56        6.281038   0.181734
   57        6.362011   0.019992
   58        6.451843   0.000443
   59        6.556318   0.000001
   60        6.624997   0.000000
   61        6.710315   0.000000
   62        6.737004   0.000000
   63        6.764879   0.000000
   64        6.913124   0.000000
   65        7.026308   0.000000
   66        7.154431   0.000000
   67        7.213207   0.000000
   68        7.362232   0.000000
 
  0.5000000E+00  0.5000000E+00  0.3333333E+00  0.1666667E+00
    1        1.223315   1.000000
    2        1.375361   1.000000
    3        1.806244   1.000000
    4        1.885201   1.000000
    5        2.598884   1.000000
    6        2.720125   1.000000
    7        2.811269   1.000000
    8        2.882630   1.000000
    9        3.011242   1.000000
   10        3.105813   1.000000
   11        3.161584   1.000000
   12        3.197864   1.000000
   13        3.354012   1.000000
   14        3.371209   1.000000
   15        3.384523   1.000000
   16        3.441952   1.000000
   17        3.496659   1.000000
   18        3.640111   1.000000
   19        3.700350   1.000000
   20        3.757654   1.000000
   21        3.764617   1.000000
   22        3.849565   1.000000
   23        3.919613   1.000000
   24        4.007607   1.000000
   25        4.246316   1.000000
   26        4.319250   1.000000
   27        4.358799   1.000000
   28        4.481512   1.000000
   29        4.554910   1.000000
   30        4.580053   1.000000
   31        4.680996   1.000000
   32        4.713284   1.000000
   33        4.770922   1.000000
   34        4.810584   1.000000
   35        4.816213   1.000000
   36        4.949336   1.000000
   37        4.991986   1.000000
   38        5.104487   1.000000
   39        5.239073   1.000000
   40        5.286453   1.000000
   41        5.321643   1.000000
   42        5.332568   1.000000
   43        5.386499   1.000000
   44        5.424932   1.000000
   45        5.509733   1.000000
   46        5.552552   1.000000
   47        5.573939   1.000000
   48        5.689291   1.000000
   49        5.708852   1.000000
   50        5.768433   1.000000
   51        5.868422   1.000000
   52        5.950510   0.999917
   53        5.969845   0.999760
   54        6.079304   0.974063
   55        6.222814   0.465983
   56        6.264647   0.249212
   57        6.267229   0.237772
   58        6.360421   0.021106
   59        6.408250   0.003386
   60        6.495532   0.000040
   61        6.514388   0.000013
   62        6.787623   0.000000
   63        6.804425   0.000000
   64        6.920674   0.000000
   65        7.002128   0.000000
   66        7.017552   0.000000
   67        7.035034   0.000000
   68        7.258796   0.000000
