       N       E                     dE             d eps       ncg     rms          rms(c)
DAV:   1     0.689269589467E+03    0.68927E+03   -0.23420E+04  1088   0.112E+03
DAV:   2    -0.317816161515E+02   -0.72105E+03   -0.69449E+03  1088   0.338E+02
DAV:   3    -0.163943002304E+03   -0.13216E+03   -0.12495E+03  1852   0.163E+02
DAV:   4    -0.178394417774E+03   -0.14451E+02   -0.13702E+02  1768   0.694E+01
DAV:   5    -0.179301780848E+03   -0.90736E+00   -0.86984E+00  1776   0.131E+01    0.659E+01
DAV:   6    -0.333487105846E+03   -0.15419E+03   -0.22134E+03  2164   0.388E+02    0.259E+02
DAV:   7    -0.230811629870E+03    0.10268E+03   -0.51484E+02  1808   0.144E+02    0.729E+01
DAV:   8    -0.155120215018E+03    0.75691E+02   -0.50632E+02  2048   0.136E+02    0.398E+01
DAV:   9    -0.154753615065E+03    0.36660E+00   -0.23895E+02  2168   0.122E+02    0.328E+01
DAV:  10    -0.159247358602E+03   -0.44937E+01   -0.69055E+01  2088   0.750E+01    0.295E+01
DAV:  11    -0.150694240356E+03    0.85531E+01   -0.38211E+01  2096   0.585E+01    0.139E+01
DAV:  12    -0.150952720458E+03   -0.25848E+00   -0.85989E+00  1984   0.214E+01    0.122E+01
DAV:  13    -0.150904974157E+03    0.47746E-01   -0.55649E+00  2024   0.185E+01    0.128E+01
DAV:  14    -0.150687365658E+03    0.21761E+00   -0.66978E+00  2064   0.192E+01    0.928E+00
DAV:  15    -0.150530068249E+03    0.15730E+00   -0.18109E+00  1976   0.108E+01    0.807E+00
DAV:  16    -0.150444271648E+03    0.85797E-01   -0.54614E-01  1792   0.581E+00    0.710E+00
DAV:  17    -0.150332948603E+03    0.11132E+00   -0.25479E-01  2144   0.430E+00    0.526E+00
DAV:  18    -0.150324483373E+03    0.84652E-02   -0.74831E-02  1832   0.187E+00    0.486E+00
DAV:  19    -0.150325846147E+03   -0.13628E-02   -0.29025E-02  1856   0.151E+00    0.441E+00
DAV:  20    -0.150310484385E+03    0.15362E-01   -0.31429E-02  2120   0.145E+00    0.308E+00
DAV:  21    -0.150308090838E+03    0.23935E-02   -0.14831E-02  2048   0.806E-01    0.266E+00
DAV:  22    -0.150306662841E+03    0.14280E-02   -0.24214E-03  1904   0.433E-01    0.234E+00
DAV:  23    -0.150303868411E+03    0.27944E-02   -0.38728E-03  2168   0.441E-01    0.164E+00
DAV:  24    -0.150302353897E+03    0.15145E-02   -0.20256E-03  1872   0.311E-01    0.994E-01
DAV:  25    -0.150301494853E+03    0.85904E-03   -0.17509E-03  1912   0.259E-01    0.416E-01
DAV:  26    -0.150301374825E+03    0.12003E-03   -0.63495E-04  1792   0.155E-01    0.153E-01
DAV:  27    -0.150301356262E+03    0.18563E-04   -0.16954E-04  1808   0.772E-02    0.518E-02
DAV:  28    -0.150301354901E+03    0.13607E-05   -0.29361E-05  1016   0.542E-02
   1 F= -.15030135E+03 E0= -.15024227E+03  d E =-.150301E+03
       N       E                     dE             d eps       ncg     rms          rms(c)
DAV:   1    -0.216022731432E+03   -0.65721E+02   -0.39663E+03  1096   0.421E+02    0.116E+02
DAV:   2    -0.602936929321E+03   -0.38691E+03   -0.65278E+03  1844   0.447E+02    0.307E+02
DAV:   3    -0.228591673886E+03    0.37435E+03   -0.13456E+03  1108   0.260E+02    0.104E+02
DAV:   4    -0.192683423663E+03    0.35908E+02   -0.21466E+03  2176   0.151E+02    0.718E+01
DAV:   5    -0.188215612273E+03    0.44678E+01   -0.84275E+02  1912   0.155E+02    0.582E+01
DAV:   6    -0.166462376580E+03    0.21753E+02   -0.17740E+02  2120   0.725E+01    0.452E+01
DAV:   7    -0.164645915937E+03    0.18165E+01   -0.13109E+02  1904   0.709E+01    0.419E+01
DAV:   8    -0.163403515809E+03    0.12424E+01   -0.45009E+01  2152   0.385E+01    0.470E+01
DAV:   9    -0.159245571398E+03    0.41579E+01   -0.18978E+01  2160   0.251E+01    0.385E+01
DAV:  10    -0.158504456720E+03    0.74111E+00   -0.25254E+00  2080   0.918E+00    0.366E+01
DAV:  11    -0.157633597335E+03    0.87086E+00   -0.24530E+00  2008   0.824E+00    0.344E+01
DAV:  12    -0.157704275087E+03   -0.70678E-01   -0.18681E+01  1936   0.224E+01    0.293E+01
DAV:  13    -0.158255101680E+03   -0.55083E+00   -0.23215E+01  1904   0.272E+01    0.298E+01
DAV:  14    -0.156614249394E+03    0.16409E+01   -0.10527E+01  2144   0.181E+01    0.222E+01
DAV:  15    -0.156758148484E+03   -0.14390E+00   -0.98322E+00  2008   0.177E+01    0.248E+01
DAV:  16    -0.154436931242E+03    0.23212E+01   -0.17734E+01  2072   0.219E+01    0.104E+01
DAV:  17    -0.154690576444E+03   -0.25365E+00   -0.33090E+00  1984   0.998E+00    0.118E+01
DAV:  18    -0.154532544075E+03    0.15803E+00   -0.24271E-01  1848   0.304E+00    0.108E+01
DAV:  19    -0.154395526248E+03    0.13702E+00   -0.12765E-01  2032   0.157E+00    0.938E+00
DAV:  20    -0.154239171479E+03    0.15635E+00   -0.31529E-01  1952   0.255E+00    0.647E+00
DAV:  21    -0.154221934595E+03    0.17237E-01   -0.74306E-02  1936   0.132E+00    0.540E+00
DAV:  22    -0.154208220126E+03    0.13714E-01   -0.15557E-02  2040   0.568E-01    0.407E+00
DAV:  23    -0.154198239687E+03    0.99804E-02   -0.23852E-02  2088   0.691E-01    0.269E+00
DAV:  24    -0.154195020354E+03    0.32193E-02   -0.82037E-03  1864   0.486E-01    0.175E+00
DAV:  25    -0.154192494958E+03    0.25254E-02   -0.38243E-03  2024   0.285E-01    0.117E+00
DAV:  26    -0.154191656951E+03    0.83801E-03   -0.14917E-03  1984   0.170E-01    0.669E-01
DAV:  27    -0.154191233041E+03    0.42391E-03   -0.17552E-03  1944   0.209E-01    0.233E-01
DAV:  28    -0.154191258585E+03   -0.25544E-04   -0.53671E-04  2112   0.124E-01    0.282E-01
DAV:  29    -0.154191176241E+03    0.82344E-04   -0.25248E-04  1816   0.781E-02    0.125E-01
DAV:  30    -0.154191160379E+03    0.15862E-04   -0.91457E-05  1664   0.376E-02    0.186E-02
DAV:  31    -0.154191158968E+03    0.14109E-05   -0.12531E-05   832   0.272E-02
   2 F= -.15419116E+03 E0= -.15407536E+03  d E =-.388980E+01
       N       E                     dE             d eps       ncg     rms          rms(c)
DAV:   1    -0.180504865023E+03   -0.26314E+02   -0.65125E+02  1128   0.141E+02    0.503E+01
DAV:   2    -0.326571256895E+03   -0.14607E+03   -0.11094E+03  2020   0.296E+02    0.207E+02
DAV:   3    -0.252262314937E+03    0.74309E+02   -0.50060E+02  1780   0.109E+02    0.737E+01
DAV:   4    -0.163205865528E+03    0.89056E+02   -0.30705E+02  1800   0.923E+01    0.277E+01
DAV:   5    -0.162217881439E+03    0.98798E+00   -0.78214E+01  1968   0.551E+01    0.142E+01
DAV:   6    -0.164375611484E+03   -0.21577E+01   -0.32469E+01  2048   0.413E+01    0.213E+01
DAV:   7    -0.162697783904E+03    0.16778E+01   -0.13340E+01  2128   0.311E+01    0.189E+01
DAV:   8    -0.161767699706E+03    0.93008E+00   -0.68814E+00  2072   0.176E+01    0.937E+00
DAV:   9    -0.163215722473E+03   -0.14480E+01   -0.96095E+00  2176   0.192E+01    0.198E+01
DAV:  10    -0.162138129588E+03    0.10776E+01   -0.21410E+00  2176   0.103E+01    0.132E+01
DAV:  11    -0.161463170167E+03    0.67496E+00   -0.36405E+00  2176   0.123E+01    0.506E+00
DAV:  12    -0.161511690934E+03   -0.48521E-01   -0.45769E-01  2136   0.534E+00    0.515E+00
DAV:  13    -0.161551648436E+03   -0.39958E-01   -0.14223E-01  2168   0.230E+00    0.579E+00
DAV:  14    -0.161473847426E+03    0.77801E-01   -0.17342E-01  2160   0.280E+00    0.375E+00
DAV:  15    -0.161456525582E+03    0.17322E-01   -0.17255E-01  2176   0.255E+00    0.284E+00
DAV:  16    -0.161458776363E+03   -0.22508E-02   -0.28896E-02  1792   0.106E+00    0.263E+00
DAV:  17    -0.161458905981E+03   -0.12962E-03   -0.83085E-03  1952   0.583E-01    0.247E+00
DAV:  18    -0.161455710074E+03    0.31959E-02   -0.31244E-03  1896   0.360E-01    0.179E+00
DAV:  19    -0.161453617509E+03    0.20926E-02   -0.31479E-03  2176   0.309E-01    0.136E+00
DAV:  20    -0.161452926102E+03    0.69141E-03   -0.14766E-03  1952   0.231E-01    0.900E-01
DAV:  21    -0.161452787261E+03    0.13884E-03   -0.30316E-04  1856   0.103E-01    0.612E-01
DAV:  22    -0.161452721798E+03    0.65462E-04   -0.55832E-05  1408   0.384E-02    0.535E-01
DAV:  23    -0.161452625413E+03    0.96385E-04   -0.26695E-04  2136   0.954E-02    0.180E-01
DAV:  24    -0.161452620638E+03    0.47749E-05   -0.21069E-05  1032   0.317E-02
   3 F= -.16145262E+03 E0= -.16137066E+03  d E =-.111513E+02
       N       E                     dE             d eps       ncg     rms          rms(c)
DAV:   1    -0.161696229878E+03   -0.24360E+00   -0.57454E+00  1244   0.151E+01    0.546E+00
DAV:   2    -0.170183310929E+03   -0.84871E+01   -0.39605E+01  2176   0.484E+01    0.357E+01
DAV:   3    -0.161404472922E+03    0.87788E+01   -0.26892E+01  2152   0.440E+01    0.364E+00
DAV:   4    -0.161600457717E+03   -0.19598E+00   -0.35544E+00  1952   0.103E+01    0.341E+00
DAV:   5    -0.161598556950E+03    0.19008E-02   -0.69628E-01  2080   0.676E+00    0.337E+00
DAV:   6    -0.161549432063E+03    0.49125E-01   -0.30165E-01  2104   0.447E+00    0.190E+00
DAV:   7    -0.161540318296E+03    0.91138E-02   -0.12739E-01  2000   0.246E+00    0.115E+00
DAV:   8    -0.161532556119E+03    0.77622E-02   -0.66625E-02  2064   0.148E+00    0.363E-01
DAV:   9    -0.161532334204E+03    0.22192E-03   -0.97060E-03  1832   0.631E-01    0.346E-01
DAV:  10    -0.161531831354E+03    0.50285E-03   -0.31762E-03  1968   0.381E-01    0.195E-01
DAV:  11    -0.161532305587E+03   -0.47423E-03   -0.51287E-03  1896   0.474E-01    0.261E-01
DAV:  12    -0.161531738186E+03    0.56740E-03   -0.32001E-03  2008   0.404E-01    0.136E-01
DAV:  13    -0.161531712746E+03    0.25440E-04   -0.52348E-04  1816   0.143E-01    0.112E-01
DAV:  14    -0.161531684723E+03    0.28023E-04   -0.10610E-04  1616   0.734E-02    0.749E-02
DAV:  15    -0.161531656001E+03    0.28722E-04   -0.87356E-05  1696   0.554E-02    0.200E-02
DAV:  16    -0.161531655685E+03    0.31589E-06   -0.10648E-05   696   0.272E-02
   4 F= -.16153166E+03 E0= -.16145243E+03  d E =-.112303E+02
       N       E                     dE             d eps       ncg     rms          rms(c)
DAV:   1    -0.161549276504E+03   -0.17621E-01   -0.54866E-01  1276   0.470E+00    0.167E+00
DAV:   2    -0.162520507751E+03   -0.97123E+00   -0.43108E+00  2176   0.151E+01    0.157E+01
DAV:   3    -0.161540797283E+03    0.97971E+00   -0.50603E+00  2176   0.149E+01    0.157E+00
DAV:   4    -0.161540433225E+03    0.36406E-03   -0.29186E-01  1936   0.375E+00    0.116E+00
DAV:   5    -0.161540865445E+03   -0.43222E-03   -0.76831E-02  2080   0.210E+00    0.102E+00
DAV:   6    -0.161534948001E+03    0.59174E-02   -0.44940E-02  1952   0.133E+00    0.440E-01
DAV:   7    -0.161534657013E+03    0.29099E-03   -0.10052E-02  1832   0.662E-01    0.375E-01
DAV:   8    -0.161533977443E+03    0.67957E-03   -0.39991E-03  2144   0.399E-01    0.129E-01
DAV:   9    -0.161533892424E+03    0.85019E-04   -0.11290E-03  1856   0.215E-01    0.703E-02
DAV:  10    -0.161533881330E+03    0.11095E-04   -0.36871E-04  1912   0.135E-01    0.524E-02
DAV:  11    -0.161533863661E+03    0.17669E-04   -0.29832E-04  1792   0.117E-01    0.288E-02
DAV:  12    -0.161533870998E+03   -0.73373E-05   -0.13350E-04  1624   0.756E-02    0.352E-02
DAV:  13    -0.161533856982E+03    0.14016E-04   -0.70604E-05  1392   0.602E-02    0.101E-02
DAV:  14    -0.161533856613E+03    0.36910E-06   -0.12599E-05   696   0.219E-02
   5 F= -.16153386E+03 E0= -.16145560E+03  d E =-.112325E+02
       N       E                     dE             d eps       ncg     rms          rms(c)
DAV:   1    -0.168226384388E+03   -0.66925E+01   -0.23183E+02  1216   0.759E+01    0.250E+01
DAV:   2    -0.235263856203E+03   -0.67037E+02   -0.43325E+02  1984   0.199E+02    0.844E+01
DAV:   3    -0.173590594163E+03    0.61673E+02   -0.18025E+02  2000   0.805E+01    0.358E+01
DAV:   4    -0.166445726986E+03    0.71449E+01   -0.75866E+01  2160   0.684E+01    0.156E+01
DAV:   5    -0.164903933491E+03    0.15418E+01   -0.25804E+01  1944   0.357E+01    0.113E+01
DAV:   6    -0.165131761459E+03   -0.22783E+00   -0.11420E+01  2080   0.246E+01    0.151E+01
DAV:   7    -0.164438958826E+03    0.69280E+00   -0.62145E+00  2072   0.166E+01    0.762E+00
DAV:   8    -0.164286307051E+03    0.15265E+00   -0.22415E+00  2168   0.971E+00    0.650E+00
DAV:   9    -0.164222089637E+03    0.64217E-01   -0.51596E-01  1816   0.491E+00    0.528E+00
DAV:  10    -0.164152825492E+03    0.69264E-01   -0.19854E-01  1976   0.314E+00    0.401E+00
DAV:  11    -0.164098989477E+03    0.53836E-01   -0.16534E-01  2176   0.269E+00    0.201E+00
DAV:  12    -0.164090703554E+03    0.82859E-02   -0.32596E-02  1904   0.128E+00    0.162E+00
DAV:  13    -0.164088455791E+03    0.22478E-02   -0.51069E-03  1952   0.422E-01    0.128E+00
DAV:  14    -0.164085401690E+03    0.30541E-02   -0.93540E-03  1904   0.608E-01    0.100E+00
DAV:  15    -0.164081411388E+03    0.39903E-02   -0.96976E-03  2176   0.674E-01    0.373E-01
DAV:  16    -0.164081116039E+03    0.29535E-03   -0.23354E-03  1968   0.318E-01    0.212E-01
DAV:  17    -0.164081016573E+03    0.99465E-04   -0.82528E-04  1936   0.212E-01    0.140E-01
DAV:  18    -0.164080958595E+03    0.57979E-04   -0.15140E-04  1888   0.875E-02    0.676E-02
DAV:  19    -0.164080943833E+03    0.14762E-04   -0.38204E-05  1096   0.430E-02    0.272E-02
DAV:  20    -0.164080943815E+03    0.17415E-07   -0.22613E-05   952   0.203E-02
   6 F= -.16408094E+03 E0= -.16400323E+03  d E =-.254709E+01
       N       E                     dE             d eps       ncg     rms          rms(c)
DAV:   1    -0.166437063874E+03   -0.23561E+01   -0.10600E+02  1288   0.549E+01    0.168E+01
DAV:   2    -0.203910143473E+03   -0.37473E+02   -0.22305E+02  2064   0.140E+02    0.628E+01
DAV:   3    -0.166210499776E+03    0.37700E+02   -0.11235E+02  2056   0.756E+01    0.212E+01
DAV:   4    -0.165771356885E+03    0.43914E+00   -0.37034E+01  2168   0.418E+01    0.121E+01
DAV:   5    -0.165509786814E+03    0.26157E+00   -0.99417E+00  2056   0.262E+01    0.118E+01
DAV:   6    -0.165025923652E+03    0.48386E+00   -0.45674E+00  2088   0.182E+01    0.868E+00
DAV:   7    -0.164715826829E+03    0.31010E+00   -0.24408E+00  2088   0.116E+01    0.336E+00
DAV:   8    -0.164693567576E+03    0.22259E-01   -0.87649E-01  2112   0.573E+00    0.339E+00
DAV:   9    -0.164697234613E+03   -0.36670E-02   -0.16444E-01  1776   0.275E+00    0.348E+00
DAV:  10    -0.164678823980E+03    0.18411E-01   -0.42000E-02  1816   0.159E+00    0.302E+00
DAV:  11    -0.164648318251E+03    0.30506E-01   -0.84608E-02  2176   0.192E+00    0.155E+00
DAV:  12    -0.164641742732E+03    0.65755E-02   -0.22213E-02  2128   0.105E+00    0.104E+00
DAV:  13    -0.164639210015E+03    0.25327E-02   -0.67829E-03  2120   0.502E-01    0.621E-01
DAV:  14    -0.164638590591E+03    0.61942E-03   -0.31158E-03  1832   0.348E-01    0.485E-01
DAV:  15    -0.164637668748E+03    0.92184E-03   -0.26025E-03  2160   0.328E-01    0.185E-01
DAV:  16    -0.164637551012E+03    0.11774E-03   -0.79924E-04  2176   0.197E-01    0.582E-02
DAV:  17    -0.164637532608E+03    0.18404E-04   -0.26174E-04  1760   0.122E-01    0.365E-02
DAV:  18    -0.164637526671E+03    0.59367E-05   -0.24042E-05   912   0.443E-02
   7 F= -.16463753E+03 E0= -.16455409E+03  d E =-.310367E+01
       N       E                     dE             d eps       ncg     rms          rms(c)
DAV:   1    -0.166816001152E+03   -0.21785E+01   -0.16742E+02  1088   0.462E+01    0.838E+00
DAV:   2    -0.184984162529E+03   -0.18168E+02   -0.12583E+02  2136   0.875E+01    0.398E+01
DAV:   3    -0.166227520987E+03    0.18757E+02   -0.39349E+01  2128   0.506E+01    0.528E+00
DAV:   4    -0.166668580506E+03   -0.44106E+00   -0.86673E+00  1816   0.171E+01    0.473E+00
DAV:   5    -0.166581605713E+03    0.86975E-01   -0.22321E+00  2112   0.111E+01    0.413E+00
DAV:   6    -0.166567342105E+03    0.14264E-01   -0.12180E+00  2160   0.872E+00    0.337E+00
DAV:   7    -0.166544821826E+03    0.22520E-01   -0.81408E-01  2152   0.740E+00    0.292E+00
DAV:   8    -0.166491966038E+03    0.52856E-01   -0.33172E-01  2168   0.490E+00    0.129E+00
DAV:   9    -0.166497809917E+03   -0.58439E-02   -0.21258E-01  2152   0.327E+00    0.178E+00
DAV:  10    -0.166478615013E+03    0.19195E-01   -0.13187E-01  2176   0.255E+00    0.484E-01
DAV:  11    -0.166478541694E+03    0.73319E-04   -0.16863E-02  1808   0.834E-01    0.355E-01
DAV:  12    -0.166477711781E+03    0.82991E-03   -0.92793E-03  2136   0.682E-01    0.162E-01
DAV:  13    -0.166477796393E+03   -0.84612E-04   -0.25489E-03  2016   0.366E-01    0.154E-01
DAV:  14    -0.166477565550E+03    0.23084E-03   -0.12068E-03  1888   0.252E-01    0.426E-02
DAV:  15    -0.166477564193E+03    0.13571E-05   -0.11663E-04  1600   0.713E-02    0.132E-02
DAV:  16    -0.166477563796E+03    0.39659E-06   -0.16490E-05   808   0.397E-02
   8 F= -.16647756E+03 E0= -.16640147E+03  d E =-.184004E+01
       N       E                     dE             d eps       ncg     rms          rms(c)
DAV:   1    -0.168563468705E+03   -0.20859E+01   -0.17179E+03  1364   0.192E+02    0.234E+01
DAV:   2    -0.259713003596E+03   -0.91150E+02   -0.78875E+02  2144   0.226E+02    0.800E+01
DAV:   3    -0.167823791854E+03    0.91889E+02   -0.37794E+02  1984   0.117E+02    0.198E+01
DAV:   4    -0.169253535909E+03   -0.14297E+01   -0.74853E+01  1872   0.543E+01    0.148E+01
DAV:   5    -0.169089872946E+03    0.16366E+00   -0.13416E+01  2032   0.297E+01    0.149E+01
DAV:   6    -0.167978239106E+03    0.11116E+01   -0.68525E+00  2112   0.216E+01    0.761E+00
DAV:   7    -0.168437488945E+03   -0.45925E+00   -0.80057E+00  2152   0.192E+01    0.110E+01
DAV:   8    -0.168266285946E+03    0.17120E+00   -0.94335E+00  2136   0.251E+01    0.113E+01
DAV:   9    -0.167610497011E+03    0.65579E+00   -0.51178E+00  2104   0.161E+01    0.447E+00
DAV:  10    -0.167511986585E+03    0.98510E-01   -0.80406E-01  1832   0.572E+00    0.240E+00
DAV:  11    -0.167508455465E+03    0.35311E-02   -0.30159E-01  2048   0.406E+00    0.249E+00
DAV:  12    -0.167509287200E+03   -0.83173E-03   -0.27081E-01  1792   0.353E+00    0.209E+00
DAV:  13    -0.167482462162E+03    0.26825E-01   -0.20760E-01  1736   0.304E+00    0.137E+00
DAV:  14    -0.167474733503E+03    0.77287E-02   -0.47418E-02  2096   0.170E+00    0.228E-01
DAV:  15    -0.167474900802E+03   -0.16730E-03   -0.80677E-03  1728   0.622E-01    0.201E-01
DAV:  16    -0.167474682416E+03    0.21839E-03   -0.18702E-03  1864   0.298E-01    0.113E-01
DAV:  17    -0.167474631734E+03    0.50682E-04   -0.35112E-04  1824   0.137E-01    0.561E-02
DAV:  18    -0.167474615561E+03    0.16172E-04   -0.90087E-05  1712   0.748E-02    0.117E-02
DAV:  19    -0.167474615767E+03   -0.20586E-06   -0.10163E-05   848   0.262E-02
   9 F= -.16747462E+03 E0= -.16740524E+03  d E =-.283709E+01
       N       E                     dE             d eps       ncg     rms          rms(c)
DAV:   1    -0.169494609927E+03   -0.20200E+01   -0.34614E+02  1116   0.749E+01    0.141E+01
DAV:   2    -0.207207328601E+03   -0.37713E+02   -0.32029E+02  2176   0.121E+02    0.662E+01
DAV:   3    -0.168937781085E+03    0.38270E+02   -0.31022E+02  2044   0.124E+02    0.196E+01
DAV:   4    -0.168585531207E+03    0.35225E+00   -0.38785E+01  2120   0.440E+01    0.800E+00
DAV:   5    -0.168552246437E+03    0.33285E-01   -0.45430E+00  1904   0.178E+01    0.589E+00
DAV:   6    -0.168391605297E+03    0.16064E+00   -0.15631E+00  1824   0.985E+00    0.486E+00
DAV:   7    -0.168505085517E+03   -0.11348E+00   -0.15323E+00  2152   0.937E+00    0.683E+00
DAV:   8    -0.168461634899E+03    0.43451E-01   -0.25429E+00  2160   0.117E+01    0.644E+00
DAV:   9    -0.168262429032E+03    0.19921E+00   -0.14297E+00  2160   0.882E+00    0.281E+00
DAV:  10    -0.168255300466E+03    0.71286E-02   -0.30867E-01  1768   0.391E+00    0.234E+00
DAV:  11    -0.168238875589E+03    0.16425E-01   -0.14094E-01  1744   0.241E+00    0.184E+00
DAV:  12    -0.168227041944E+03    0.11834E-01   -0.58332E-02  1728   0.171E+00    0.964E-01
DAV:  13    -0.168226202127E+03    0.83982E-03   -0.43567E-02  1736   0.128E+00    0.680E-01
DAV:  14    -0.168223235087E+03    0.29670E-02   -0.19441E-02  1752   0.940E-01    0.365E-01
DAV:  15    -0.168223302984E+03   -0.67897E-04   -0.16213E-03  1792   0.255E-01    0.280E-01
DAV:  16    -0.168223262436E+03    0.40548E-04   -0.11844E-03  1720   0.238E-01    0.227E-01
DAV:  17    -0.168223039251E+03    0.22319E-03   -0.87476E-04  1912   0.198E-01    0.638E-02
DAV:  18    -0.168223023429E+03    0.15822E-04   -0.14270E-04  1776   0.759E-02    0.174E-02
DAV:  19    -0.168223021520E+03    0.19094E-05   -0.13663E-05   816   0.265E-02
  10 F= -.16822302E+03 E0= -.16814929E+03  d E =-.358549E+01
       N       E                     dE             d eps       ncg     rms          rms(c)
DAV:   1    -0.168281770842E+03   -0.58747E-01   -0.10013E+01  1104   0.112E+01    0.175E+00
DAV:   2    -0.168910315578E+03   -0.62854E+00   -0.43250E+00  2152   0.163E+01    0.835E+00
DAV:   3    -0.168301940611E+03    0.60837E+00   -0.29475E+00  2176   0.144E+01    0.268E+00
DAV:   4    -0.168265828889E+03    0.36112E-01   -0.34389E-01  2104   0.496E+00    0.831E-01
DAV:   5    -0.168269643872E+03   -0.38150E-02   -0.90871E-02  2112   0.241E+00    0.106E+00
DAV:   6    -0.168260841854E+03    0.88020E-02   -0.75025E-02  2104   0.214E+00    0.459E-01
DAV:   7    -0.168265215060E+03   -0.43732E-02   -0.38765E-02  2144   0.155E+00    0.988E-01
DAV:   8    -0.168260746499E+03    0.44686E-02   -0.29886E-02  2168   0.138E+00    0.432E-01
DAV:   9    -0.168259320819E+03    0.14257E-02   -0.85746E-03  2112   0.682E-01    0.108E-01
DAV:  10    -0.168259513719E+03   -0.19290E-03   -0.27449E-03  1776   0.326E-01    0.165E-01
DAV:  11    -0.168259256576E+03    0.25714E-03   -0.15990E-03  1744   0.278E-01    0.340E-02
DAV:  12    -0.168259260619E+03   -0.40436E-05   -0.13043E-04  1664   0.738E-02    0.162E-02
DAV:  13    -0.168259258597E+03    0.20228E-05   -0.18166E-05   912   0.374E-02
  11 F= -.16825926E+03 E0= -.16818339E+03  d E =-.362173E+01
       N       E                     dE             d eps       ncg     rms          rms(c)
DAV:   1    -0.168774903803E+03   -0.51564E+00   -0.62671E+01  1088   0.301E+01    0.427E+00
DAV:   2    -0.174933906231E+03   -0.61590E+01   -0.32588E+01  2120   0.454E+01    0.310E+01
DAV:   3    -0.168758512858E+03    0.61754E+01   -0.22691E+01  2128   0.370E+01    0.425E+00
DAV:   4    -0.168846550957E+03   -0.88038E-01   -0.30752E+00  2152   0.104E+01    0.342E+00
DAV:   5    -0.168833776966E+03    0.12774E-01   -0.61126E-01  2112   0.621E+00    0.288E+00
DAV:   6    -0.168792630766E+03    0.41146E-01   -0.39142E-01  2128   0.475E+00    0.174E+00
DAV:   7    -0.168802770010E+03   -0.10139E-01   -0.26553E-01  2108   0.358E+00    0.170E+00
DAV:   8    -0.168776749659E+03    0.26020E-01   -0.17159E-01  1752   0.253E+00    0.608E-01
DAV:   9    -0.168775200955E+03    0.15487E-02   -0.45450E-02  1784   0.143E+00    0.329E-01
DAV:  10    -0.168774535906E+03    0.66505E-03   -0.83357E-03  1796   0.725E-01    0.218E-01
DAV:  11    -0.168774202517E+03    0.33339E-03   -0.32155E-03  2024   0.391E-01    0.110E-01
DAV:  12    -0.168774147455E+03    0.55062E-04   -0.68725E-04  1800   0.185E-01    0.555E-02
DAV:  13    -0.168774136457E+03    0.10998E-04   -0.43661E-04  1728   0.139E-01    0.466E-02
DAV:  14    -0.168774119037E+03    0.17420E-04   -0.12486E-04  1728   0.744E-02    0.110E-02
DAV:  15    -0.168774120082E+03   -0.10445E-05   -0.16941E-05   856   0.342E-02
  12 F= -.16877412E+03 E0= -.16869674E+03  d E =-.514861E+00
       N       E                     dE             d eps       ncg     rms          rms(c)
DAV:   1    -0.168950927487E+03   -0.17681E+00   -0.66714E+01  1088   0.310E+01    0.428E+00
DAV:   2    -0.175278537618E+03   -0.63276E+01   -0.31740E+01  2128   0.445E+01    0.315E+01
DAV:   3    -0.168926969460E+03    0.63516E+01   -0.23664E+01  2120   0.370E+01    0.406E+00
DAV:   4    -0.169052732521E+03   -0.12576E+00   -0.30433E+00  2168   0.106E+01    0.410E+00
DAV:   5    -0.169038699697E+03    0.14033E-01   -0.76293E-01  2100   0.689E+00    0.350E+00
DAV:   6    -0.168973890974E+03    0.64809E-01   -0.50655E-01  2160   0.523E+00    0.166E+00
DAV:   7    -0.168984093662E+03   -0.10203E-01   -0.27019E-01  2056   0.344E+00    0.165E+00
DAV:   8    -0.168957089654E+03    0.27004E-01   -0.15720E-01  1776   0.237E+00    0.424E-01
DAV:   9    -0.168958617808E+03   -0.15282E-02   -0.37254E-02  1904   0.129E+00    0.444E-01
DAV:  10    -0.168956528658E+03    0.20892E-02   -0.13485E-02  1944   0.856E-01    0.160E-01
DAV:  11    -0.168956509481E+03    0.19177E-04   -0.30806E-03  1752   0.352E-01    0.136E-01
DAV:  12    -0.168956386410E+03    0.12307E-03   -0.97992E-04  1744   0.203E-01    0.477E-02
DAV:  13    -0.168956394444E+03   -0.80344E-05   -0.49565E-04  1768   0.143E-01    0.545E-02
DAV:  14    -0.168956367293E+03    0.27151E-04   -0.19261E-04  1792   0.923E-02    0.137E-02
DAV:  15    -0.168956368266E+03   -0.97299E-06   -0.22815E-05   880   0.402E-02
  13 F= -.16895637E+03 E0= -.16888011E+03  d E =-.697110E+00
       N       E                     dE             d eps       ncg     rms          rms(c)
DAV:   1    -0.169861032251E+03   -0.90466E+00   -0.40673E+01  1244   0.354E+01    0.113E+01
DAV:   2    -0.192267800578E+03   -0.22407E+02   -0.12209E+02  2152   0.100E+02    0.507E+01
DAV:   3    -0.169144643875E+03    0.23123E+02   -0.69570E+01  2112   0.673E+01    0.119E+01
DAV:   4    -0.169526830738E+03   -0.38219E+00   -0.16312E+01  2096   0.242E+01    0.770E+00
DAV:   5    -0.169625578596E+03   -0.98748E-01   -0.46308E+00  2056   0.168E+01    0.941E+00
DAV:   6    -0.169319507702E+03    0.30607E+00   -0.19532E+00  2048   0.120E+01    0.553E+00
DAV:   7    -0.169219513691E+03    0.99994E-01   -0.11809E+00  2024   0.706E+00    0.378E+00
DAV:   8    -0.169139062596E+03    0.80451E-01   -0.51201E-01  2136   0.536E+00    0.107E+00
DAV:   9    -0.169149343043E+03   -0.10280E-01   -0.14494E-01  1920   0.231E+00    0.170E+00
DAV:  10    -0.169146633100E+03    0.27099E-02   -0.24771E-02  1744   0.110E+00    0.164E+00
DAV:  11    -0.169139275628E+03    0.73575E-02   -0.30609E-02  2152   0.117E+00    0.101E+00
DAV:  12    -0.169134941500E+03    0.43341E-02   -0.21357E-02  1840   0.902E-01    0.633E-01
DAV:  13    -0.169134442635E+03    0.49886E-03   -0.29897E-03  1864   0.377E-01    0.511E-01
DAV:  14    -0.169133840569E+03    0.60207E-03   -0.16667E-03  1968   0.262E-01    0.365E-01
DAV:  15    -0.169133447390E+03    0.39318E-03   -0.62409E-04  2168   0.160E-01    0.223E-01
DAV:  16    -0.169133326132E+03    0.12126E-03   -0.30246E-04  2000   0.105E-01    0.150E-01
DAV:  17    -0.169133224913E+03    0.10122E-03   -0.24932E-04  2144   0.104E-01    0.620E-02
DAV:  18    -0.169133209259E+03    0.15654E-04   -0.27615E-05  1064   0.391E-02    0.305E-02
DAV:  19    -0.169133206723E+03    0.25365E-05   -0.27757E-05   960   0.191E-02
  14 F= -.16913321E+03 E0= -.16906244E+03  d E =-.176838E+00
       N       E                     dE             d eps       ncg     rms          rms(c)
DAV:   1    -0.169162943357E+03   -0.29734E-01   -0.11372E+00  1376   0.616E+00    0.205E+00
DAV:   2    -0.170302461645E+03   -0.11395E+01   -0.61353E+00  2120   0.194E+01    0.139E+01
DAV:   3    -0.169132837630E+03    0.11696E+01   -0.41546E+00  2128   0.161E+01    0.101E+00
DAV:   4    -0.169146652615E+03   -0.13815E-01   -0.34073E-01  1768   0.381E+00    0.830E-01
DAV:   5    -0.169145874973E+03    0.77764E-03   -0.81726E-02  1864   0.204E+00    0.776E-01
DAV:   6    -0.169141344348E+03    0.45306E-02   -0.30468E-02  2096   0.131E+00    0.382E-01
DAV:   7    -0.169142002593E+03   -0.65824E-03   -0.11527E-02  2056   0.898E-01    0.545E-01
DAV:   8    -0.169140695954E+03    0.13066E-02   -0.66223E-03  2080   0.707E-01    0.177E-01
DAV:   9    -0.169140458521E+03    0.23743E-03   -0.23527E-03  1848   0.323E-01    0.791E-02
DAV:  10    -0.169140485921E+03   -0.27400E-04   -0.72042E-04  1808   0.178E-01    0.832E-02
DAV:  11    -0.169140421925E+03    0.63995E-04   -0.48725E-04  1768   0.152E-01    0.292E-02
DAV:  12    -0.169140423192E+03   -0.12666E-05   -0.70353E-05  1472   0.608E-02
  15 F= -.16914042E+03 E0= -.16906904E+03  d E =-.184055E+00
       N       E                     dE             d eps       ncg     rms          rms(c)
DAV:   1    -0.169335977409E+03   -0.19556E+00   -0.29335E+01  1088   0.227E+01    0.655E+00
DAV:   2    -0.183169330064E+03   -0.13833E+02   -0.80971E+01  2088   0.692E+01    0.442E+01
DAV:   3    -0.169234097208E+03    0.13935E+02   -0.35639E+01  2088   0.439E+01    0.583E+00
DAV:   4    -0.169357467312E+03   -0.12337E+00   -0.48159E+00  2064   0.139E+01    0.483E+00
DAV:   5    -0.169320489737E+03    0.36978E-01   -0.12274E+00  2112   0.888E+00    0.317E+00
DAV:   6    -0.169265140002E+03    0.55350E-01   -0.41079E-01  2120   0.489E+00    0.956E-01
DAV:   7    -0.169272880369E+03   -0.77404E-02   -0.15323E-01  1808   0.251E+00    0.123E+00
DAV:   8    -0.169258767842E+03    0.14113E-01   -0.97137E-02  1816   0.222E+00    0.471E-01
DAV:   9    -0.169260328322E+03   -0.15605E-02   -0.34140E-02  1856   0.126E+00    0.574E-01
DAV:  10    -0.169258162376E+03    0.21659E-02   -0.15882E-02  2096   0.969E-01    0.226E-01
DAV:  11    -0.169257859328E+03    0.30305E-03   -0.46970E-03  1768   0.423E-01    0.125E-01
DAV:  12    -0.169257782161E+03    0.77167E-04   -0.20285E-03  1864   0.314E-01    0.113E-01
DAV:  13    -0.169257665712E+03    0.11645E-03   -0.10626E-03  1728   0.212E-01    0.415E-02
DAV:  14    -0.169257660328E+03    0.53841E-05   -0.16844E-04  1712   0.947E-02    0.157E-02
DAV:  15    -0.169257662376E+03   -0.20473E-05   -0.34544E-05  1064   0.453E-02
  16 F= -.16925766E+03 E0= -.16918744E+03  d E =-.117239E+00
       N       E                     dE             d eps       ncg     rms          rms(c)
DAV:   1    -0.169257690002E+03   -0.29674E-04   -0.40776E-03  1152   0.258E-01    0.613E-02
DAV:   2    -0.169258907147E+03   -0.12171E-02   -0.63574E-03  2136   0.636E-01    0.472E-01
DAV:   3    -0.169257678246E+03    0.12289E-02   -0.44785E-03  2112   0.551E-01    0.366E-02
DAV:   4    -0.169257683026E+03   -0.47803E-05   -0.30500E-04  1792   0.109E-01    0.182E-02
DAV:   5    -0.169257685093E+03   -0.20666E-05   -0.37674E-05  1128   0.578E-02
  17 F= -.16925769E+03 E0= -.16918745E+03  d E =-.117262E+00
       N       E                     dE             d eps       ncg     rms          rms(c)
DAV:   1    -0.169289977226E+03   -0.32294E-01   -0.35763E+00  1088   0.662E+00    0.608E-01
DAV:   2    -0.169385468555E+03   -0.95491E-01   -0.63375E-01  2096   0.598E+00    0.354E+00
DAV:   3    -0.169300257814E+03    0.85211E-01   -0.46492E-01  2096   0.525E+00    0.104E+00
DAV:   4    -0.169295513807E+03    0.47440E-02   -0.54426E-02  2136   0.181E+00    0.392E-01
DAV:   5    -0.169298143087E+03   -0.26293E-02   -0.26323E-02  2140   0.130E+00    0.854E-01
DAV:   6    -0.169294350225E+03    0.37929E-02   -0.20237E-02  2144   0.118E+00    0.283E-01
DAV:   7    -0.169294465739E+03   -0.11551E-03   -0.10826E-02  1984   0.677E-01    0.272E-01
DAV:   8    -0.169294126279E+03    0.33946E-03   -0.57127E-03  1832   0.475E-01    0.183E-01
DAV:   9    -0.169293775368E+03    0.35091E-03   -0.21547E-03  1904   0.330E-01    0.404E-02
DAV:  10    -0.169293787502E+03   -0.12134E-04   -0.32371E-04  1792   0.126E-01    0.361E-02
DAV:  11    -0.169293772086E+03    0.15416E-04   -0.96769E-05  1552   0.752E-02    0.124E-02
DAV:  12    -0.169293772264E+03   -0.17849E-06   -0.26683E-05   952   0.406E-02
  18 F= -.16929377E+03 E0= -.16922618E+03  d E =-.360872E-01
       N       E                     dE             d eps       ncg     rms          rms(c)
DAV:   1    -0.169305247739E+03   -0.11476E-01   -0.14670E+01  1092   0.134E+01    0.124E+00
DAV:   2    -0.169690085017E+03   -0.38484E+00   -0.24856E+00  2088   0.120E+01    0.706E+00
DAV:   3    -0.169341493142E+03    0.34859E+00   -0.17502E+00  2080   0.102E+01    0.184E+00
DAV:   4    -0.169329692322E+03    0.11801E-01   -0.22345E-01  2152   0.354E+00    0.894E-01
DAV:   5    -0.169339961575E+03   -0.10269E-01   -0.11110E-01  2124   0.274E+00    0.176E+00
DAV:   6    -0.169323444751E+03    0.16517E-01   -0.87150E-02  2128   0.239E+00    0.497E-01
DAV:   7    -0.169324459227E+03   -0.10145E-02   -0.41920E-02  1824   0.129E+00    0.547E-01
DAV:   8    -0.169322408939E+03    0.20503E-02   -0.18108E-02  1904   0.929E-01    0.272E-01
DAV:   9    -0.169321597179E+03    0.81176E-03   -0.62537E-03  1840   0.537E-01    0.784E-02
DAV:  10    -0.169321676909E+03   -0.79730E-04   -0.12574E-03  1824   0.246E-01    0.908E-02
DAV:  11    -0.169321580177E+03    0.96732E-04   -0.63289E-04  1752   0.178E-01    0.218E-02
DAV:  12    -0.169321586498E+03   -0.63211E-05   -0.11507E-04  1712   0.735E-02    0.266E-02
DAV:  13    -0.169321578301E+03    0.81965E-05   -0.38547E-05  1088   0.501E-02
  19 F= -.16932158E+03 E0= -.16926076E+03  d E =-.638932E-01
       N       E                     dE             d eps       ncg     rms          rms(c)
DAV:   1    -0.169339150599E+03   -0.17564E-01   -0.45815E+00  1088   0.733E+00    0.106E+00
DAV:   2    -0.169684083362E+03   -0.34493E+00   -0.16490E+00  2152   0.101E+01    0.916E+00
DAV:   3    -0.169359205902E+03    0.32488E+00   -0.19613E+00  2120   0.878E+00    0.116E+00
DAV:   4    -0.169349897799E+03    0.93081E-02   -0.13708E-01  1968   0.250E+00    0.720E-01
DAV:   5    -0.169351275289E+03   -0.13775E-02   -0.35833E-02  1980   0.162E+00    0.845E-01
DAV:   6    -0.169347428394E+03    0.38469E-02   -0.20183E-02  2000   0.123E+00    0.272E-01
DAV:   7    -0.169348603199E+03   -0.11748E-02   -0.19778E-02  1920   0.964E-01    0.412E-01
DAV:   8    -0.169346801645E+03    0.18016E-02   -0.11313E-02  2040   0.738E-01    0.102E-01
DAV:   9    -0.169346835091E+03   -0.33445E-04   -0.16498E-03  1760   0.238E-01    0.104E-01
DAV:  10    -0.169346763193E+03    0.71898E-04   -0.77155E-04  1912   0.167E-01    0.510E-02
DAV:  11    -0.169346756464E+03    0.67294E-05   -0.37793E-04  1848   0.134E-01    0.413E-02
DAV:  12    -0.169346744856E+03    0.11607E-04   -0.10368E-04  1608   0.755E-02    0.211E-02
DAV:  13    -0.169346739678E+03    0.51787E-05   -0.21507E-05   920   0.406E-02
  20 F= -.16934674E+03 E0= -.16928956E+03  d E =-.251614E-01
       N       E                     dE             d eps       ncg     rms          rms(c)
DAV:   1    -0.169348003340E+03   -0.12585E-02   -0.16217E+00  1088   0.438E+00    0.623E-01
DAV:   2    -0.169460059180E+03   -0.11206E+00   -0.55738E-01  2152   0.592E+00    0.502E+00
DAV:   3    -0.169354194495E+03    0.10586E+00   -0.43993E-01  2136   0.504E+00    0.622E-01
DAV:   4    -0.169351742398E+03    0.24521E-02   -0.39722E-02  1848   0.138E+00    0.354E-01
DAV:   5    -0.169352639968E+03   -0.89757E-03   -0.11721E-02  1992   0.937E-01    0.540E-01
DAV:   6    -0.169351127928E+03    0.15120E-02   -0.76861E-03  2016   0.768E-01    0.161E-01
DAV:   7    -0.169351511771E+03   -0.38384E-03   -0.65609E-03  1976   0.575E-01    0.233E-01
DAV:   8    -0.169350921685E+03    0.59009E-03   -0.35569E-03  2040   0.422E-01    0.614E-02
DAV:   9    -0.169350925268E+03   -0.35825E-05   -0.52839E-04  1752   0.148E-01    0.539E-02
DAV:  10    -0.169350905820E+03    0.19448E-04   -0.20256E-04  1848   0.105E-01    0.291E-02
DAV:  11    -0.169350901104E+03    0.47155E-05   -0.98396E-05  1512   0.657E-02
  21 F= -.16935090E+03 E0= -.16929523E+03  d E =-.293228E-01
       N       E                     dE             d eps       ncg     rms          rms(c)
DAV:   1    -0.169415635990E+03   -0.64730E-01   -0.29165E+00  1212   0.109E+01    0.377E+00
DAV:   2    -0.173271434096E+03   -0.38558E+01   -0.19895E+01  2104   0.351E+01    0.256E+01
DAV:   3    -0.169331699473E+03    0.39397E+01   -0.11090E+01  2104   0.260E+01    0.196E+00
DAV:   4    -0.169373345778E+03   -0.41646E-01   -0.11387E+00  1836   0.679E+00    0.168E+00
DAV:   5    -0.169383949469E+03   -0.10604E-01   -0.31109E-01  2048   0.444E+00    0.226E+00
DAV:   6    -0.169355511296E+03    0.28438E-01   -0.12468E-01  2048   0.314E+00    0.710E-01
DAV:   7    -0.169357133544E+03   -0.16222E-02   -0.51863E-02  2144   0.163E+00    0.786E-01
DAV:   8    -0.169352537831E+03    0.45957E-02   -0.27071E-02  2072   0.117E+00    0.245E-01
DAV:   9    -0.169352238187E+03    0.29964E-03   -0.64275E-03  1752   0.485E-01    0.176E-01
DAV:  10    -0.169352075496E+03    0.16269E-03   -0.16469E-03  1848   0.297E-01    0.843E-02
DAV:  11    -0.169352056293E+03    0.19203E-04   -0.88162E-04  1864   0.216E-01    0.670E-02
DAV:  12    -0.169352021883E+03    0.34410E-04   -0.26813E-04  1792   0.118E-01    0.299E-02
DAV:  13    -0.169352020608E+03    0.12751E-05   -0.11581E-04  1688   0.687E-02    0.213E-02
DAV:  14    -0.169352020305E+03    0.30300E-06   -0.13673E-05   768   0.368E-02
  22 F= -.16935202E+03 E0= -.16929510E+03  d E =-.111920E-02
       N       E                     dE             d eps       ncg     rms          rms(c)
DAV:   1    -0.169369469759E+03   -0.17449E-01   -0.63499E-01  1272   0.503E+00    0.152E+00
DAV:   2    -0.170069954683E+03   -0.70048E+00   -0.28660E+00  2120   0.136E+01    0.127E+01
DAV:   3    -0.169366085771E+03    0.70387E+00   -0.33970E+00  2112   0.127E+01    0.138E+00
DAV:   4    -0.169365677146E+03    0.40862E-03   -0.25621E-01  2112   0.345E+00    0.134E+00
DAV:   5    -0.169366045212E+03   -0.36807E-03   -0.72185E-02  2032   0.230E+00    0.117E+00
DAV:   6    -0.169357122573E+03    0.89226E-02   -0.40266E-02  2096   0.160E+00    0.374E-01
DAV:   7    -0.169357026711E+03    0.95862E-04   -0.74647E-03  1800   0.569E-01    0.301E-01
DAV:   8    -0.169356555300E+03    0.47141E-03   -0.27629E-03  2032   0.370E-01    0.140E-01
DAV:   9    -0.169356465627E+03    0.89672E-04   -0.10125E-03  1808   0.196E-01    0.828E-02
DAV:  10    -0.169356443358E+03    0.22269E-04   -0.38298E-04  1840   0.128E-01    0.491E-02
DAV:  11    -0.169356428368E+03    0.14990E-04   -0.28193E-04  1776   0.108E-01    0.307E-02
DAV:  12    -0.169356426909E+03    0.14592E-05   -0.62669E-05  1504   0.596E-02
  23 F= -.16935643E+03 E0= -.16930012E+03  d E =-.552580E-02
       N       E                     dE             d eps       ncg     rms          rms(c)
DAV:   1    -0.169362813548E+03   -0.63852E-02   -0.44067E-01  1108   0.287E+00    0.865E-01
DAV:   2    -0.169635252590E+03   -0.27244E+00   -0.11831E+00  2120   0.894E+00    0.823E+00
DAV:   3    -0.169367956366E+03    0.26730E+00   -0.16931E+00  2104   0.808E+00    0.105E+00
DAV:   4    -0.169361040591E+03    0.69158E-02   -0.82371E-02  1984   0.197E+00    0.525E-01
DAV:   5    -0.169361054411E+03   -0.13820E-04   -0.15313E-02  2136   0.103E+00    0.506E-01
DAV:   6    -0.169359980053E+03    0.10744E-02   -0.11950E-02  2104   0.769E-01    0.283E-01
DAV:   7    -0.169359442468E+03    0.53759E-03   -0.56213E-03  1880   0.541E-01    0.189E-01
DAV:   8    -0.169359319070E+03    0.12340E-03   -0.21689E-03  2008   0.326E-01    0.113E-01
DAV:   9    -0.169359203859E+03    0.11521E-03   -0.12160E-03  1824   0.218E-01    0.403E-02
DAV:  10    -0.169359202826E+03    0.10322E-05   -0.13756E-04  1784   0.876E-02    0.256E-02
DAV:  11    -0.169359197829E+03    0.49976E-05   -0.57702E-05  1456   0.550E-02
  24 F= -.16935920E+03 E0= -.16930237E+03  d E =-.277092E-02
       N       E                     dE             d eps       ncg     rms          rms(c)
DAV:   1    -0.169359218010E+03   -0.15183E-04   -0.10487E-03  1136   0.144E-01    0.489E-02
DAV:   2    -0.169359938447E+03   -0.72044E-03   -0.34144E-03  2136   0.491E-01    0.362E-01
DAV:   3    -0.169359208173E+03    0.73027E-03   -0.27834E-03  2136   0.433E-01    0.307E-02
DAV:   4    -0.169359210623E+03   -0.24503E-05   -0.18025E-04  1712   0.866E-02    0.177E-02
DAV:   5    -0.169359211094E+03   -0.47067E-06   -0.27769E-05  1032   0.486E-02
  25 F= -.16935921E+03 E0= -.16930237E+03  d E =-.278419E-02
       N       E                     dE             d eps       ncg     rms          rms(c)
DAV:   1    -0.169359235875E+03   -0.25252E-04   -0.40751E-03  1120   0.279E-01    0.919E-02
DAV:   2    -0.169362003328E+03   -0.27675E-02   -0.13098E-02  2144   0.961E-01    0.710E-01
DAV:   3    -0.169359194272E+03    0.28091E-02   -0.10866E-02  2136   0.848E-01    0.577E-02
DAV:   4    -0.169359207051E+03   -0.12779E-04   -0.62864E-04  1720   0.162E-01    0.343E-02
DAV:   5    -0.169359212045E+03   -0.49939E-05   -0.14780E-04  1912   0.943E-02    0.440E-02
DAV:   6    -0.169359205270E+03    0.67754E-05   -0.97380E-05  1840   0.858E-02
  26 F= -.16935921E+03 E0= -.16930230E+03  d E =-.277836E-02
       N       E                     dE             d eps       ncg     rms          rms(c)
DAV:   1    -0.169359223041E+03   -0.10996E-04   -0.17239E-03  1152   0.188E-01    0.501E-02
DAV:   2    -0.169359954628E+03   -0.73159E-03   -0.37474E-03  2128   0.518E-01    0.347E-01
DAV:   3    -0.169359218621E+03    0.73601E-03   -0.28236E-03  2136   0.447E-01    0.415E-02
DAV:   4    -0.169359212827E+03    0.57939E-05   -0.22518E-04  1776   0.102E-01    0.155E-02
DAV:   5    -0.169359213381E+03   -0.55418E-06   -0.36846E-05  1132   0.441E-02
  27 F= -.16935921E+03 E0= -.16930237E+03  d E =-.278647E-02
       N       E                     dE             d eps       ncg     rms          rms(c)
DAV:   1    -0.169360601119E+03   -0.13883E-02   -0.11025E-01  1160   0.154E+00    0.406E-01
DAV:   2    -0.169401944004E+03   -0.41343E-01   -0.21479E-01  2096   0.375E+00    0.261E+00
DAV:   3    -0.169359480266E+03    0.42464E-01   -0.15511E-01  2104   0.326E+00    0.186E-01
DAV:   4    -0.169360187169E+03   -0.70690E-03   -0.12765E-02  1800   0.716E-01    0.230E-01
DAV:   5    -0.169360258060E+03   -0.70891E-04   -0.39792E-03  2072   0.572E-01    0.293E-01
DAV:   6    -0.169359810335E+03    0.44772E-03   -0.23247E-03  2112   0.429E-01    0.900E-02
DAV:   7    -0.169359812356E+03   -0.20208E-05   -0.84853E-04  1952   0.209E-01    0.892E-02
DAV:   8    -0.169359755581E+03    0.56775E-04   -0.42731E-04  2096   0.150E-01    0.370E-02
DAV:   9    -0.169359748950E+03    0.66308E-05   -0.12256E-04  1592   0.699E-02    0.254E-02
DAV:  10    -0.169359743994E+03    0.49565E-05   -0.17303E-05   804   0.407E-02
  28 F= -.16935974E+03 E0= -.16930253E+03  d E =-.530613E-03
       N       E                     dE             d eps       ncg     rms          rms(c)
DAV:   1    -0.169359744081E+03    0.48698E-05   -0.20626E-05   760   0.292E-02    0.592E-03
DAV:   2    -0.169359746017E+03   -0.19369E-05   -0.13629E-05   680   0.318E-02
  29 F= -.16935975E+03 E0= -.16930254E+03  d E =-.532637E-03
       N       E                     dE             d eps       ncg     rms          rms(c)
DAV:   1    -0.169360946959E+03   -0.12029E-02   -0.98510E-02  1224   0.146E+00    0.422E-01
DAV:   2    -0.169410211100E+03   -0.49264E-01   -0.23036E-01  2136   0.389E+00    0.335E+00
DAV:   3    -0.169360801118E+03    0.49410E-01   -0.20767E-01  2128   0.350E+00    0.348E-01
DAV:   4    -0.169360480170E+03    0.32095E-03   -0.17574E-02  1952   0.903E-01    0.259E-01
DAV:   5    -0.169360847743E+03   -0.36757E-03   -0.53508E-03  2072   0.604E-01    0.365E-01
DAV:   6    -0.169360174635E+03    0.67311E-03   -0.33159E-03  2064   0.466E-01    0.112E-01
DAV:   7    -0.169360101730E+03    0.72905E-04   -0.10914E-03  1784   0.222E-01    0.657E-02
DAV:   8    -0.169360098500E+03    0.32306E-05   -0.37804E-04  1848   0.133E-01    0.541E-02
DAV:   9    -0.169360070279E+03    0.28221E-04   -0.21344E-04  1808   0.978E-02    0.186E-02
DAV:  10    -0.169360074843E+03   -0.45641E-05   -0.76904E-05  1576   0.598E-02
  30 F= -.16936007E+03 E0= -.16930264E+03  d E =-.328825E-03
       N       E                     dE             d eps       ncg     rms          rms(c)
DAV:   1    -0.169360094750E+03   -0.24471E-04   -0.17675E-03  1320   0.198E-01    0.603E-02
DAV:   2    -0.169361076166E+03   -0.98142E-03   -0.50234E-03  2152   0.562E-01    0.425E-01
DAV:   3    -0.169360072249E+03    0.10039E-02   -0.37579E-03  2144   0.505E-01    0.358E-02
DAV:   4    -0.169360075300E+03   -0.30513E-05   -0.30527E-04  1784   0.115E-01    0.193E-02
DAV:   5    -0.169360078689E+03   -0.33892E-05   -0.59132E-05  1324   0.591E-02
  31 F= -.16936008E+03 E0= -.16930272E+03  d E =-.332672E-03
       N       E                     dE             d eps       ncg     rms          rms(c)
DAV:   1    -0.169360283424E+03   -0.20812E-03   -0.88799E-02  1104   0.112E+00    0.247E-01
DAV:   2    -0.169379086267E+03   -0.18803E-01   -0.94921E-02  2112   0.253E+00    0.176E+00
DAV:   3    -0.169360018841E+03    0.19067E-01   -0.69911E-02  2112   0.219E+00    0.104E-01
DAV:   4    -0.169360322074E+03   -0.30323E-03   -0.45721E-03  1760   0.405E-01    0.121E-01
DAV:   5    -0.169360295156E+03    0.26917E-04   -0.96127E-04  2040   0.244E-01    0.117E-01
DAV:   6    -0.169360231264E+03    0.63893E-04   -0.63910E-04  2112   0.209E-01    0.735E-02
DAV:   7    -0.169360239000E+03   -0.77359E-05   -0.44332E-04  2136   0.170E-01    0.791E-02
DAV:   8    -0.169360198214E+03    0.40786E-04   -0.27860E-04  2096   0.126E-01    0.266E-02
DAV:   9    -0.169360192945E+03    0.52685E-05   -0.63260E-05  1464   0.569E-02
  32 F= -.16936019E+03 E0= -.16930249E+03  d E =-.114256E-03
       N       E                     dE             d eps       ncg     rms          rms(c)
DAV:   1    -0.169360213045E+03   -0.14831E-04   -0.97615E-03  1104   0.365E-01    0.768E-02
DAV:   2    -0.169362127091E+03   -0.19140E-02   -0.92406E-03  2112   0.783E-01    0.589E-01
DAV:   3    -0.169360201689E+03    0.19254E-02   -0.74509E-03  2112   0.697E-01    0.402E-02
DAV:   4    -0.169360217459E+03   -0.15770E-04   -0.43649E-04  1768   0.132E-01    0.309E-02
DAV:   5    -0.169360217105E+03    0.35415E-06   -0.10264E-04  1736   0.765E-02    0.367E-02
DAV:   6    -0.169360211620E+03    0.54848E-05   -0.58941E-05  1488   0.728E-02
  33 F= -.16936021E+03 E0= -.16930261E+03  d E =-.132931E-03
       N       E                     dE             d eps       ncg     rms          rms(c)
DAV:   1    -0.169360339924E+03   -0.12282E-03   -0.15997E-02  1136   0.554E-01    0.151E-01
DAV:   2    -0.169366713680E+03   -0.63738E-02   -0.30233E-02  2120   0.142E+00    0.113E+00
DAV:   3    -0.169360236368E+03    0.64773E-02   -0.25105E-02  2128   0.125E+00    0.750E-02
DAV:   4    -0.169360317087E+03   -0.80719E-04   -0.18939E-03  1840   0.275E-01    0.836E-02
DAV:   5    -0.169360303784E+03    0.13302E-04   -0.46315E-04  2096   0.187E-01    0.836E-02
DAV:   6    -0.169360272729E+03    0.31055E-04   -0.23210E-04  2056   0.128E-01    0.419E-02
DAV:   7    -0.169360269383E+03    0.33457E-05   -0.93370E-05  1712   0.767E-02
  34 F= -.16936027E+03 E0= -.16930271E+03  d E =-.577633E-04
