 vasp.5.4.4.18Apr17-6-g9f103f2a35 (build Jul 11 2019 11:52:51) complex          
  
 executed on             LinuxIFC date 2023.11.29  16:55:47
 running on    4 total cores
 distrk:  each k-point on    4 cores,    1 groups
 distr:  one band on NCORES_PER_BAND=   1 cores,    4 groups


--------------------------------------------------------------------------------------------------------


 INCAR:
 POTCAR:    PAW_PBE V 08Apr2002                   
 POTCAR:    PAW_PBE Fe 06Sep2000                  
 POTCAR:    PAW_PBE V 08Apr2002                   
   VRHFIN =V: p6 d4 s1                                                          
   LEXCH  = PE                                                                  
   EATOM  =   170.8679 eV,   12.5584 Ry                                         
                                                                                
   TITEL  = PAW_PBE V 08Apr2002                                                 
   LULTRA =        F    use ultrasoft PP ?                                      
   IUNSCR =        1    unscreen: 0-lin 1-nonlin 2-no                           
   RPACOR =    2.000    partial core radius                                     
   POMASS =   50.941; ZVAL   =    5.000    mass and valenz                      
   RCORE  =    2.700    outmost cutoff radius                                   
   RWIGS  =    2.500; RWIGS  =    1.323    wigner-seitz radius (au A)           
   ENMAX  =  192.543; ENMIN  =  144.408 eV                                      
   RCLOC  =    1.779    cutoff for local pot                                    
   LCOR   =        T    correct aug charges                                     
   LPAW   =        T    paw PP                                                  
   EAUG   =  358.662                                                            
   DEXC   =    0.000                                                            
   RMAX   =    2.768    core radius for proj-oper                               
   RAUG   =    1.300    factor for augmentation sphere                          
   RDEP   =    2.762    radius for radial grids                                 
   RDEPT  =    2.240    core radius for aug-charge                              
                                                                                
   Atomic configuration                                                         
    9 entries                                                                   
     n  l   j            E        occ.                                          
     1  0  0.50     -5360.7193   2.0000                                         
     2  0  0.50      -598.4546   2.0000                                         
     2  1  1.50      -499.0155   6.0000                                         
     3  0  0.50       -66.5711   2.0000                                         
     3  1  1.50       -40.5282   6.0000                                         
     3  2  2.50        -2.4291   4.0000                                         
     4  0  0.50        -3.8743   1.0000                                         
     4  1  0.50        -2.7212   0.0000                                         
     4  3  2.50        -1.3606   0.0000                                         
   Description                                                                  
     l       E           TYP  RCUT    TYP  RCUT                                 
     2     -2.4290901     23  2.700                                             
     2     -3.7896727     23  2.700                                             
     0     -3.8742752     23  2.700                                             
     0     27.2116520     23  2.700                                             
     1     -2.7211652     23  2.700                                             
     1     27.2116520     23  2.700                                             
  local pseudopotential read in
  partial core-charges read in
  partial kinetic energy density read in
  atomic valenz-charges read in
  non local Contribution for L=           2  read in
    real space projection operators read in
  non local Contribution for L=           2  read in
    real space projection operators read in
  non local Contribution for L=           0  read in
    real space projection operators read in
  non local Contribution for L=           0  read in
    real space projection operators read in
  non local Contribution for L=           1  read in
    real space projection operators read in
  non local Contribution for L=           1  read in
    real space projection operators read in
    PAW grid and wavefunctions read in
 
   number of l-projection  operators is LMAX  =           6
   number of lm-projection operators is LMMAX =          18
 
 POTCAR:    PAW_PBE Fe 06Sep2000                  
   VRHFIN =Fe:  d7 s1                                                           
   LEXCH  = PE                                                                  
   EATOM  =   594.3153 eV,   43.6809 Ry                                         
                                                                                
   TITEL  = PAW_PBE Fe 06Sep2000                                                
   LULTRA =        F    use ultrasoft PP ?                                      
   IUNSCR =        1    unscreen: 0-lin 1-nonlin 2-no                           
   RPACOR =    2.000    partial core radius                                     
   POMASS =   55.847; ZVAL   =    8.000    mass and valenz                      
   RCORE  =    2.300    outmost cutoff radius                                   
   RWIGS  =    2.460; RWIGS  =    1.302    wigner-seitz radius (au A)           
   ENMAX  =  267.882; ENMIN  =  200.911 eV                                      
   RCLOC  =    1.701    cutoff for local pot                                    
   LCOR   =        T    correct aug charges                                     
   LPAW   =        T    paw PP                                                  
   EAUG   =  511.368                                                            
   DEXC   =    0.000                                                            
   RMAX   =    2.356    core radius for proj-oper                               
   RAUG   =    1.300    factor for augmentation sphere                          
   RDEP   =    2.442    radius for radial grids                                 
   RDEPT  =    1.890    core radius for aug-charge                              
                                                                                
   Atomic configuration                                                         
    9 entries                                                                   
     n  l   j            E        occ.                                          
     1  0  0.50     -6993.8440   2.0000                                         
     2  0  0.50      -814.6047   2.0000                                         
     2  1  1.50      -693.3689   6.0000                                         
     3  0  0.50       -89.4732   2.0000                                         
     3  1  1.50       -55.6373   6.0000                                         
     3  2  2.50        -3.8151   7.0000                                         
     4  0  0.50        -4.2551   1.0000                                         
     4  1  1.50        -3.4015   0.0000                                         
     4  3  2.50        -1.3606   0.0000                                         
   Description                                                                  
     l       E           TYP  RCUT    TYP  RCUT                                 
     2     -3.8151135     23  2.300                                             
     2     -5.1756961     23  2.300                                             
     0     -4.2550963     23  2.300                                             
     0      7.2035603     23  2.300                                             
     1     -2.7211652     23  2.300                                             
     1     18.4316424     23  2.300                                             
  local pseudopotential read in
  partial core-charges read in
  partial kinetic energy density read in
  atomic valenz-charges read in
  non local Contribution for L=           2  read in
    real space projection operators read in
  non local Contribution for L=           2  read in
    real space projection operators read in
  non local Contribution for L=           0  read in
    real space projection operators read in
  non local Contribution for L=           0  read in
    real space projection operators read in
  non local Contribution for L=           1  read in
    real space projection operators read in
  non local Contribution for L=           1  read in
    real space projection operators read in
    PAW grid and wavefunctions read in
 
   number of l-projection  operators is LMAX  =           6
   number of lm-projection operators is LMMAX =          18
 

 ----------------------------------------------------------------------------- 
|                                                                             |
|  ADVICE TO THIS USER RUNNING 'VASP/VAMP'   (HEAR YOUR MASTER'S VOICE ...):  |
|                                                                             |
|      You have a (more or less) 'large supercell' and for larger cells       |
|      it might be more efficient to use real space projection opertators     |
|      So try LREAL= Auto  in the INCAR   file.                               |
|      Mind:          For very  accurate calculation you might also keep the  |
|      reciprocal projection scheme          (i.e. LREAL=.FALSE.)             |
|                                                                             |
 ----------------------------------------------------------------------------- 

  PAW_PBE V 08Apr2002                   :
 energy of atom  1       EATOM= -170.8679
 kinetic energy error for atom=    0.0066 (will be added to EATOM!!)
  PAW_PBE Fe 06Sep2000                  :
 energy of atom  2       EATOM= -594.3153
 kinetic energy error for atom=    0.0346 (will be added to EATOM!!)
 
 
 POSCAR: EA0     7.567  7.769  4.407 90.00 90.00 
  positions in direct lattice
  No initial velocities read in
 exchange correlation table for  LEXCH =        8
   RHO(1)=    0.500       N(1)  =     2000
   RHO(2)=  100.500       N(2)  =     4000
 


--------------------------------------------------------------------------------------------------------


 ion  position               nearest neighbor table
   1  0.245  0.500  0.500-   7 2.21   8 2.21  16 2.42  17 2.42  16 2.67  17 2.67  11 2.93  11 2.93

   2  0.755  0.500  0.500-   7 2.21   8 2.21  14 2.42  15 2.42  15 2.67  14 2.67  11 2.93  11 2.93

   3  0.723  0.867  0.937-  12 2.13   4 2.14  20 2.20  15 2.21  20 2.70  18 2.76   9 2.86   8 3.12
                            13 3.16
   4  0.723  0.133  0.063-  13 2.13   3 2.14  20 2.20  14 2.21  20 2.70  18 2.76  10 2.86   7 3.12
                            12 3.16
   5  0.277  0.867  0.063-  12 2.13   6 2.14  19 2.20  17 2.21  19 2.70  18 2.76   9 2.86   8 3.12
                            13 3.16
   6  0.277  0.133  0.937-  13 2.13   5 2.14  19 2.20  16 2.21  19 2.70  18 2.76  10 2.86   7 3.12
                            12 3.16
   7  0.500  0.362  0.500-   8 2.14   2 2.21   1 2.21  11 2.45  11 2.45  18 2.82   4 3.12   6 3.12

   8  0.500  0.638  0.500-   7 2.14   2 2.21   1 2.21  11 2.45  11 2.45  18 2.82   3 3.12   5 3.12

   9  0.000  0.834  0.500-  12 2.20  12 2.20  20 2.25  19 2.25  10 2.59  17 2.82  15 2.82   5 2.86
                             3 2.86  15 3.03  17 3.03
  10  0.000  0.166  0.500-  13 2.20  13 2.20  20 2.25  19 2.25   9 2.59  16 2.82  14 2.82   6 2.86
                             4 2.86  16 3.03  14 3.03
  11  0.500  0.500  0.000-   7 2.45   8 2.45   7 2.45   8 2.45  16 2.92  17 2.92  14 2.92  15 2.92
                             1 2.93   2 2.93   1 2.93   2 2.93
  12  0.000  0.830  0.000-  15 1.91  17 1.91   3 2.13   5 2.13   9 2.20   9 2.20  13 2.64   6 3.16
                             4 3.16
  13  0.000  0.170  0.000-  14 1.91  16 1.91   4 2.13   6 2.13  10 2.20  10 2.20  12 2.64   3 3.16
                             5 3.16
  14  0.864  0.376  0.968-  13 1.91  15 1.95  16 2.08   4 2.21   2 2.42   2 2.67  17 2.82  10 2.82
                            11 2.92  10 3.03
  15  0.864  0.624  0.032-  12 1.91  14 1.95  17 2.08   3 2.21   2 2.42   2 2.67  16 2.82   9 2.82
                            11 2.92   9 3.03
  16  0.136  0.376  0.032-  13 1.91  17 1.95  14 2.08   6 2.21   1 2.42   1 2.67  15 2.82  10 2.82
                            11 2.92  10 3.03
  17  0.136  0.624  0.968-  12 1.91  16 1.95  15 2.08   5 2.21   1 2.42   1 2.67  14 2.82   9 2.82
                            11 2.92   9 3.03
  18  0.500  0.000  0.500-  19 1.94  20 1.94   5 2.76   6 2.76   3 2.76   4 2.76   7 2.82   8 2.82

  19  0.243  0.000  0.500-  18 1.94   6 2.20   5 2.20  10 2.25   9 2.25   5 2.70   6 2.70
  20  0.757  0.000  0.500-  18 1.94   4 2.20   3 2.20  10 2.25   9 2.25   4 2.70   3 2.70
 
  LATTYP: Found a simple orthorhombic cell.
 ALAT       =     4.4069050000
 B/A-ratio  =     1.7171039539
 C/A-ratio  =     1.7628805250
  
  Lattice vectors:
  
 A1 = (   0.0000000000,   0.0000000000,   4.4069050000)
 A2 = (  -7.5671140000,   0.0000000000,   0.0000000000)
 A3 = (   0.0000000000,  -7.7688470000,   0.0000000000)


Analysis of symmetry for initial positions (statically):
=====================================================================
 Subroutine PRICEL returns:
 Original cell was already a primitive cell.
 

 Routine SETGRP: Setting up the symmetry group for a 
 simple orthorhombic supercell.


 Subroutine GETGRP returns: Found  4 space group operations
 (whereof  4 operations were pure point group operations)
 out of a pool of  8 trial point group operations.


The static configuration has the point symmetry D_2 .


Analysis of symmetry for dynamics (positions and initial velocities):
=====================================================================
 Subroutine PRICEL returns:
 Original cell was already a primitive cell.
 

 Routine SETGRP: Setting up the symmetry group for a 
 simple orthorhombic supercell.


 Subroutine GETGRP returns: Found  4 space group operations
 (whereof  4 operations were pure point group operations)
 out of a pool of  8 trial point group operations.


The dynamic configuration has the point symmetry D_2 .


 Subroutine INISYM returns: Found  4 space group operations
 (whereof  4 operations are pure point group operations),
 and found     1 'primitive' translations

 
 
 KPOINTS: EA                                      

Automatic generation of k-mesh.
Space group operators:
 irot       det(A)        alpha          n_x          n_y          n_z        tau_x        tau_y        tau_z
    1     1.000000     0.000001     1.000000     0.000000     0.000000     0.000000     0.000000     0.000000
    2     1.000000   180.000000     0.000000     1.000000     0.000000     0.000000     0.000000     0.000000
    3     1.000000   180.000000     1.000000     0.000000     0.000000     0.000000     0.000000     0.000000
    4     1.000000   179.999999     0.000000     0.000000     1.000000     0.000000     0.000000     0.000000
 
 Subroutine IBZKPT returns following result:
 ===========================================
 
 Found      8 irreducible k-points:
 
 Following reciprocal coordinates:
            Coordinates               Weight
  0.000000  0.000000  0.000000      1.000000
  0.500000  0.000000  0.000000      1.000000
  0.000000  0.500000  0.000000      1.000000
  0.500000  0.500000  0.000000      1.000000
  0.000000  0.000000  0.333333      2.000000
  0.500000  0.000000  0.333333      2.000000
  0.000000  0.500000  0.333333      2.000000
  0.500000  0.500000  0.333333      2.000000
 
 Following cartesian coordinates:
            Coordinates               Weight
  0.000000  0.000000  0.000000      1.000000
  0.066075  0.000000  0.000000      1.000000
  0.000000  0.064360  0.000000      1.000000
  0.066075  0.064360  0.000000      1.000000
  0.000000  0.000000  0.075639      2.000000
  0.066075  0.000000  0.075639      2.000000
  0.000000  0.064360  0.075639      2.000000
  0.066075  0.064360  0.075639      2.000000
 


--------------------------------------------------------------------------------------------------------




 Dimension of arrays:
   k-points           NKPTS =      8   k-points in BZ     NKDIM =      8   number of bands    NBANDS=     68
   number of dos      NEDOS =    301   number of ions     NIONS =     20
   non local maximal  LDIM  =      6   non local SUM 2l+1 LMDIM =     18
   total plane-waves  NPLWV =  17280
   max r-space proj   IRMAX =      1   max aug-charges    IRDMAX=   4244
   dimension x,y,z NGX =    30 NGY =   32 NGZ =   18
   dimension x,y,z NGXF=    60 NGYF=   64 NGZF=   36
   support grid    NGXF=    60 NGYF=   64 NGZF=   36
   ions per type =              17   3
   NGX,Y,Z   is equivalent  to a cutoff of   6.59,  6.85,  6.79 a.u.
   NGXF,Y,Z  is equivalent  to a cutoff of  13.18, 13.70, 13.58 a.u.

 SYSTEM =  unknown system                          
 POSCAR =  EA0     7.567  7.769  4.407 90.00 90.00 

 Startparameter for this run:
   NWRITE =      2    write-flag & timer
   PREC   = normal    normal or accurate (medium, high low for compatibility)
   ISTART =      0    job   : 0-new  1-cont  2-samecut
   ICHARG =      2    charge: 1-file 2-atom 10-const
   ISPIN  =      1    spin polarized calculation?
   LNONCOLLINEAR =      F non collinear calculations
   LSORBIT =      F    spin-orbit coupling
   INIWAV =      1    electr: 0-lowe 1-rand  2-diag
   LASPH  =      F    aspherical Exc in radial PAW
   METAGGA=      F    non-selfconsistent MetaGGA calc.

 Electronic Relaxation 1
   ENCUT  =  267.9 eV  19.69 Ry    4.44 a.u.  10.10 10.37  5.88*2*pi/ulx,y,z
   ENINI  =  267.9     initial cutoff
   ENAUG  =  511.4 eV  augmentation charge cutoff
   NELM   =     60;   NELMIN=  2; NELMDL= -5     # of ELM steps 
   EDIFF  = 0.1E-04   stopping-criterion for ELM
   LREAL  =      F    real-space projection
   NLSPLINE    = F    spline interpolate recip. space projectors
   LCOMPAT=      F    compatible to vasp.4.4
   GGA_COMPAT  = T    GGA compatible to vasp.4.4-vasp.4.6
   LMAXPAW     = -100 max onsite density
   LMAXMIX     =    2 max onsite mixed and CHGCAR
   VOSKOWN=      0    Vosko Wilk Nusair interpolation
   ROPT   =    0.00000   0.00000
 Ionic relaxation
   EDIFFG = -.1E-01   stopping-criterion for IOM
   NSW    =    500    number of steps for IOM
   NBLOCK =      1;   KBLOCK =    500    inner block; outer block 
   IBRION =      2    ionic relax: 0-MD 1-quasi-New 2-CG
   NFREE  =      1    steps in history (QN), initial steepest desc. (CG)
   ISIF   =      3    stress and relaxation
   IWAVPR =     11    prediction:  0-non 1-charg 2-wave 3-comb
   ISYM   =      2    0-nonsym 1-usesym 2-fastsym
   LCORR  =      T    Harris-Foulkes like correction to forces

   POTIM  = 0.5000    time-step for ionic-motion
   TEIN   =    0.0    initial temperature
   TEBEG  =    0.0;   TEEND  =   0.0 temperature during run
   SMASS  =  -3.00    Nose mass-parameter (am)
   estimated Nose-frequenzy (Omega)   =  0.10E-29 period in steps =****** mass=  -0.131E-26a.u.
   SCALEE = 1.0000    scale energy and forces
   NPACO  =    256;   APACO  = 16.0  distance and # of slots for P.C.
   PSTRESS=    0.0 pullay stress

  Mass of Ions in am
   POMASS =  50.94 55.85
  Ionic Valenz
   ZVAL   =   5.00  8.00
  Atomic Wigner-Seitz radii
   RWIGS  =  -1.00 -1.00
  virtual crystal weights 
   VCA    =   1.00  1.00
   NELECT =     109.0000    total number of electrons
   NUPDOWN=      -1.0000    fix difference up-down

 DOS related values:
   EMIN   =  10.00;   EMAX   =-10.00  energy-range for DOS
   EFERMI =   0.00
   ISMEAR =     0;   SIGMA  =   0.10  broadening in eV -4-tet -1-fermi 0-gaus

 Electronic relaxation 2 (details)
   IALGO  =     38    algorithm
   LDIAG  =      T    sub-space diagonalisation (order eigenvalues)
   LSUBROT=      F    optimize rotation matrix (better conditioning)
   TURBO    =      0    0=normal 1=particle mesh
   IRESTART =      0    0=no restart 2=restart with 2 vectors
   NREBOOT  =      0    no. of reboots
   NMIN     =      0    reboot dimension
   EREF     =   0.00    reference energy to select bands
   IMIX   =      4    mixing-type and parameters
     AMIX     =   0.40;   BMIX     =  1.00
     AMIX_MAG =   1.60;   BMIX_MAG =  1.00
     AMIN     =   0.10
     WC   =   100.;   INIMIX=   1;  MIXPRE=   1;  MAXMIX= -45

 Intra band minimization:
   WEIMIN = 0.0010     energy-eigenvalue tresh-hold
   EBREAK =  0.37E-07  absolut break condition
   DEPER  =   0.30     relativ break condition  

   TIME   =   0.40     timestep for ELM

  volume/ion in A,a.u.               =      12.95        87.42
  Fermi-wavevector in a.u.,A,eV,Ry     =   1.226714  2.318154 20.474433  1.504828
  Thomas-Fermi vector in A             =   2.361705
 
 Write flags
   LWAVE        =      F    write WAVECAR
   LDOWNSAMPLE  =      F    k-point downsampling of WAVECAR
   LCHARG       =      F    write CHGCAR
   LVTOT        =      F    write LOCPOT, total local potential
   LVHAR        =      F    write LOCPOT, Hartree potential only
   LELF         =      F    write electronic localiz. function (ELF)
   LORBIT       =      0    0 simple, 1 ext, 2 COOP (PROOUT), +10 PAW based schemes


 Dipole corrections
   LMONO  =      F    monopole corrections only (constant potential shift)
   LDIPOL =      F    correct potential (dipole corrections)
   IDIPOL =      0    1-x, 2-y, 3-z, 4-all directions 
   EPSILON=  1.0000000 bulk dielectric constant

 Exchange correlation treatment:
   GGA     =    --    GGA type
   LEXCH   =     8    internal setting for exchange type
   VOSKOWN=      0    Vosko Wilk Nusair interpolation
   LHFCALC =     F    Hartree Fock is set to
   LHFONE  =     F    Hartree Fock one center treatment
   AEXX    =    0.0000 exact exchange contribution

 Linear response parameters
   LEPSILON=     F    determine dielectric tensor
   LRPA    =     F    only Hartree local field effects (RPA)
   LNABLA  =     F    use nabla operator in PAW spheres
   LVEL    =     F    velocity operator in full k-point grid
   LINTERFAST=   F  fast interpolation
   KINTER  =     0    interpolate to denser k-point grid
   CSHIFT  =0.1000    complex shift for real part using Kramers Kronig
   OMEGAMAX=  -1.0    maximum frequency
   DEG_THRESHOLD= 0.2000000E-02 threshold for treating states as degnerate
   RTIME   =   -0.100 relaxation time in fs
  (WPLASMAI=    0.000 imaginary part of plasma frequency in eV, 0.658/RTIME)
   DFIELD  = 0.0000000 0.0000000 0.0000000 field for delta impulse in time
 
 Orbital magnetization related:
   ORBITALMAG=     F  switch on orbital magnetization
   LCHIMAG   =     F  perturbation theory with respect to B field
   DQ        =  0.001000  dq finite difference perturbation B field
   LLRAUG    =     F  two centre corrections for induced B field



--------------------------------------------------------------------------------------------------------


 conjugate gradient relaxation of ions
 charge density and potential will be updated during run
 non-spin polarized calculation
 Variant of blocked Davidson
 Davidson routine will perform the subspace rotation
 perform sub-space diagonalisation
    after iterative eigenvector-optimisation
 modified Broyden-mixing scheme, WC =      100.0
 initial mixing is a Kerker type mixing with AMIX =  0.4000 and BMIX =      1.0000
 Hartree-type preconditioning will be used
 using additional bands           13
 reciprocal scheme for non local part
 use partial core corrections
 calculate Harris-corrections to forces 
   (improved forces if not selfconsistent)
 use gradient corrections 
 use of overlap-Matrix (Vanderbilt PP)
 Gauss-broadening in eV      SIGMA  =   0.10


--------------------------------------------------------------------------------------------------------


  energy-cutoff  :      267.88
  volume of cell :      259.07
      direct lattice vectors                 reciprocal lattice vectors
     7.567114000  0.000000000  0.000000000     0.132150778  0.000000000  0.000000000
     0.000000000  7.768847000  0.000000000     0.000000000  0.128719230  0.000000000
     0.000000000  0.000000000  4.406905000     0.000000000  0.000000000  0.226916623

  length of vectors
     7.567114000  7.768847000  4.406905000     0.132150778  0.128719230  0.226916623


 
 k-points in units of 2pi/SCALE and weight: EA                                      
   0.00000000  0.00000000  0.00000000       0.083
   0.06607539  0.00000000  0.00000000       0.083
   0.00000000  0.06435961  0.00000000       0.083
   0.06607539  0.06435961  0.00000000       0.083
   0.00000000  0.00000000  0.07563887       0.167
   0.06607539  0.00000000  0.07563887       0.167
   0.00000000  0.06435961  0.07563887       0.167
   0.06607539  0.06435961  0.07563887       0.167
 
 k-points in reciprocal lattice and weights: EA                                      
   0.00000000  0.00000000  0.00000000       0.083
   0.50000000  0.00000000  0.00000000       0.083
   0.00000000  0.50000000  0.00000000       0.083
   0.50000000  0.50000000  0.00000000       0.083
   0.00000000  0.00000000  0.33333333       0.167
   0.50000000  0.00000000  0.33333333       0.167
   0.00000000  0.50000000  0.33333333       0.167
   0.50000000  0.50000000  0.33333333       0.167
 
 position of ions in fractional coordinates (direct lattice) 
   0.24505200  0.50000000  0.50000000
   0.75494800  0.50000000  0.50000000
   0.72335200  0.86730700  0.93695000
   0.72335200  0.13269300  0.06305000
   0.27664800  0.86730700  0.06305000
   0.27664800  0.13269300  0.93695000
   0.50000000  0.36243100  0.50000000
   0.50000000  0.63756900  0.50000000
   0.00000000  0.83359500  0.50000000
   0.00000000  0.16640500  0.50000000
   0.50000000  0.50000000  0.00000000
   0.00000000  0.82986600  0.00000000
   0.00000000  0.17013400  0.00000000
   0.86387900  0.37598100  0.96789000
   0.86387900  0.62401900  0.03211000
   0.13612100  0.37598100  0.03211000
   0.13612100  0.62401900  0.96789000
   0.50000000  0.00000000  0.50000000
   0.24303500  0.00000000  0.50000000
   0.75696500  0.00000000  0.50000000
 
 position of ions in cartesian coordinates  (Angst):
   1.85433642  3.88442350  2.20345250
   5.71277758  3.88442350  2.20345250
   5.47368705  6.73797539  4.12904964
   5.47368705  1.03087161  0.27785536
   2.09342695  6.73797539  0.27785536
   2.09342695  1.03087161  4.12904964
   3.78355700  2.81567099  2.20345250
   3.78355700  4.95317601  2.20345250
   0.00000000  6.47607201  2.20345250
   0.00000000  1.29277499  2.20345250
   3.78355700  3.88442350  0.00000000
   0.00000000  6.44710198  0.00000000
   0.00000000  1.32174502  0.00000000
   6.53707088  2.92093886  4.26539928
   6.53707088  4.84790814  0.14150572
   1.03004312  2.92093886  0.14150572
   1.03004312  4.84790814  4.26539928
   3.78355700  0.00000000  2.20345250
   1.83907355  0.00000000  2.20345250
   5.72804045  0.00000000  2.20345250
 


--------------------------------------------------------------------------------------------------------


 k-point  1 :   0.0000 0.0000 0.0000  plane waves:    2587
 k-point  2 :   0.5000 0.0000 0.0000  plane waves:    2560
 k-point  3 :   0.0000 0.5000 0.0000  plane waves:    2556
 k-point  4 :   0.5000 0.5000 0.0000  plane waves:    2580
 k-point  5 :   0.0000 0.0000 0.3333  plane waves:    2582
 k-point  6 :   0.5000 0.0000 0.3333  plane waves:    2596
 k-point  7 :   0.0000 0.5000 0.3333  plane waves:    2572
 k-point  8 :   0.5000 0.5000 0.3333  plane waves:    2592

 maximum and minimum number of plane-waves per node :      2596     2556

 maximum number of plane-waves:      2596
 maximum index in each direction: 
   IXMAX=   10   IYMAX=   10   IZMAX=    5
   IXMIN=  -10   IYMIN=  -10   IZMIN=   -6


 serial   3D FFT for wavefunctions
 parallel 3D FFT for charge:
    minimum data exchange during FFTs selected (reduces bandwidth)


 total amount of memory used by VASP MPI-rank0    47575. kBytes
=======================================================================

   base      :      30000. kBytes
   nonl-proj :       6811. kBytes
   fftplans  :       1303. kBytes
   grid      :       2718. kBytes
   one-center:        311. kBytes
   wavefun   :       6432. kBytes
 
     INWAV:  cpu time    0.0001: real time    0.0001
 Broyden mixing: mesh for mixing (old mesh)
   NGX = 21   NGY = 21   NGZ = 11
  (NGX  = 60   NGY  = 64   NGZ  = 36)
  gives a total of   4851 points

 initial charge density was supplied:
 charge density of overlapping atoms calculated
 number of electron     109.0000000 magnetization 
 keeping initial charge density in first step


--------------------------------------------------------------------------------------------------------


 Maximum index for augmentation-charges         1002 (set IRDMAX)


--------------------------------------------------------------------------------------------------------


 First call to EWALD:  gamma=   0.278
 Maximum number of real-space cells 2x 2x 4
 Maximum number of reciprocal cells 3x 3x 2

    FEWALD:  cpu time    0.0023: real time    0.0023


--------------------------------------- Iteration      1(   1)  ---------------------------------------


    POTLOK:  cpu time    0.0275: real time    0.0276
    SETDIJ:  cpu time    0.0161: real time    0.0162
     EDDAV:  cpu time    1.2828: real time    1.2841
       DOS:  cpu time    0.0018: real time    0.0018
    --------------------------------------------
      LOOP:  cpu time    1.3282: real time    1.3296

 eigenvalue-minimisations  :  1088
 total energy-change (2. order) : 0.6892696E+03  (-0.2342030E+04)
 number of electron     109.0000000 magnetization 
 augmentation part      109.0000000 magnetization 

 Free energy of the ion-electron system (eV)
  ---------------------------------------------------
  alpha Z        PSCENC =       552.45267510
  Ewald energy   TEWEN  =     -4863.96418287
  -Hartree energ DENC   =     -1103.26369374
  -exchange      EXHF   =         0.00000000
  -V(xc)+E(xc)   XCENC  =      -769.81852539
  PAW double counting   =      5171.05454107    -4356.08836938
  entropy T*S    EENTRO =        -0.08110650
  eigenvalues    EBANDS =      1371.49402495
  atomic energy  EATOM  =      4687.48422623
  Solvation  Ediel_sol  =         0.00000000
  ---------------------------------------------------
  free energy    TOTEN  =       689.26958947 eV

  energy without entropy =      689.35069597  energy(sigma->0) =      689.31014272


--------------------------------------------------------------------------------------------------------




--------------------------------------- Iteration      1(   2)  ---------------------------------------


     EDDAV:  cpu time    1.2922: real time    1.2937
       DOS:  cpu time    0.0013: real time    0.0013
    --------------------------------------------
      LOOP:  cpu time    1.2936: real time    1.2951

 eigenvalue-minimisations  :  1088
 total energy-change (2. order) :-0.7210512E+03  (-0.6944855E+03)
 number of electron     109.0000000 magnetization 
 augmentation part      109.0000000 magnetization 

 Free energy of the ion-electron system (eV)
  ---------------------------------------------------
  alpha Z        PSCENC =       552.45267510
  Ewald energy   TEWEN  =     -4863.96418287
  -Hartree energ DENC   =     -1103.26369374
  -exchange      EXHF   =         0.00000000
  -V(xc)+E(xc)   XCENC  =      -769.81852539
  PAW double counting   =      5171.05454107    -4356.08836938
  entropy T*S    EENTRO =        -0.07723561
  eigenvalues    EBANDS =       650.43894844
  atomic energy  EATOM  =      4687.48422623
  Solvation  Ediel_sol  =         0.00000000
  ---------------------------------------------------
  free energy    TOTEN  =       -31.78161615 eV

  energy without entropy =      -31.70438054  energy(sigma->0) =      -31.74299835


--------------------------------------------------------------------------------------------------------




--------------------------------------- Iteration      1(   3)  ---------------------------------------


     EDDAV:  cpu time    1.9612: real time    1.9637
       DOS:  cpu time    0.0012: real time    0.0012
    --------------------------------------------
      LOOP:  cpu time    1.9625: real time    1.9649

 eigenvalue-minimisations  :  1852
 total energy-change (2. order) :-0.1321614E+03  (-0.1249461E+03)
 number of electron     109.0000000 magnetization 
 augmentation part      109.0000000 magnetization 

 Free energy of the ion-electron system (eV)
  ---------------------------------------------------
  alpha Z        PSCENC =       552.45267510
  Ewald energy   TEWEN  =     -4863.96418287
  -Hartree energ DENC   =     -1103.26369374
  -exchange      EXHF   =         0.00000000
  -V(xc)+E(xc)   XCENC  =      -769.81852539
  PAW double counting   =      5171.05454107    -4356.08836938
  entropy T*S    EENTRO =        -0.09182145
  eigenvalues    EBANDS =       518.29214813
  atomic energy  EATOM  =      4687.48422623
  Solvation  Ediel_sol  =         0.00000000
  ---------------------------------------------------
  free energy    TOTEN  =      -163.94300230 eV

  energy without entropy =     -163.85118085  energy(sigma->0) =     -163.89709158


--------------------------------------------------------------------------------------------------------




--------------------------------------- Iteration      1(   4)  ---------------------------------------


     EDDAV:  cpu time    1.7681: real time    1.7750
       DOS:  cpu time    0.0012: real time    0.0012
    --------------------------------------------
      LOOP:  cpu time    1.7693: real time    1.7762

 eigenvalue-minimisations  :  1768
 total energy-change (2. order) :-0.1445142E+02  (-0.1370160E+02)
 number of electron     109.0000000 magnetization 
 augmentation part      109.0000000 magnetization 

 Free energy of the ion-electron system (eV)
  ---------------------------------------------------
  alpha Z        PSCENC =       552.45267510
  Ewald energy   TEWEN  =     -4863.96418287
  -Hartree energ DENC   =     -1103.26369374
  -exchange      EXHF   =         0.00000000
  -V(xc)+E(xc)   XCENC  =      -769.81852539
  PAW double counting   =      5171.05454107    -4356.08836938
  entropy T*S    EENTRO =        -0.10501916
  eigenvalues    EBANDS =       503.85393037
  atomic energy  EATOM  =      4687.48422623
  Solvation  Ediel_sol  =         0.00000000
  ---------------------------------------------------
  free energy    TOTEN  =      -178.39441777 eV

  energy without entropy =     -178.28939862  energy(sigma->0) =     -178.34190820


--------------------------------------------------------------------------------------------------------




--------------------------------------- Iteration      1(   5)  ---------------------------------------


     EDDAV:  cpu time    1.8189: real time    1.8210
       DOS:  cpu time    0.0014: real time    0.0014
    CHARGE:  cpu time    0.0494: real time    0.0494
    MIXING:  cpu time    0.0014: real time    0.0014
    --------------------------------------------
      LOOP:  cpu time    1.8711: real time    1.8733

 eigenvalue-minimisations  :  1776
 total energy-change (2. order) :-0.9073631E+00  (-0.8698389E+00)
 number of electron     108.9999788 magnetization 
 augmentation part       40.9746573 magnetization 

 Broyden mixing:
  rms(total) = 0.65927E+01    rms(broyden)= 0.65914E+01
  rms(prec ) = 0.10076E+02
  weight for this iteration     100.00

 Free energy of the ion-electron system (eV)
  ---------------------------------------------------
  alpha Z        PSCENC =       552.45267510
  Ewald energy   TEWEN  =     -4863.96418287
  -Hartree energ DENC   =     -1103.26369374
  -exchange      EXHF   =         0.00000000
  -V(xc)+E(xc)   XCENC  =      -769.81852539
  PAW double counting   =      5171.05454107    -4356.08836938
  entropy T*S    EENTRO =        -0.10810155
  eigenvalues    EBANDS =       502.94964969
  atomic energy  EATOM  =      4687.48422623
  Solvation  Ediel_sol  =         0.00000000
  ---------------------------------------------------
  free energy    TOTEN  =      -179.30178085 eV

  energy without entropy =     -179.19367930  energy(sigma->0) =     -179.24773007


--------------------------------------------------------------------------------------------------------




--------------------------------------- Iteration      1(   6)  ---------------------------------------


    POTLOK:  cpu time    0.0260: real time    0.0260
    SETDIJ:  cpu time    0.0165: real time    0.0165
     EDDAV:  cpu time    2.3634: real time    2.3666
       DOS:  cpu time    0.0012: real time    0.0012
    CHARGE:  cpu time    0.0485: real time    0.0486
    MIXING:  cpu time    0.0016: real time    0.0016
    --------------------------------------------
      LOOP:  cpu time    2.4572: real time    2.4605

 eigenvalue-minimisations  :  2164
 total energy-change (2. order) :-0.1541853E+03  (-0.2213392E+03)
 number of electron     109.0000452 magnetization 
 augmentation part       51.9295562 magnetization 

 Broyden mixing:
  rms(total) = 0.25918E+02    rms(broyden)= 0.25917E+02
  rms(prec ) = 0.30846E+02
  weight for this iteration     100.00

 eigenvalues of (default mixing * dielectric matrix)
  average eigenvalue GAMMA=   0.0599
  0.0599

 Free energy of the ion-electron system (eV)
  ---------------------------------------------------
  alpha Z        PSCENC =       552.45267510
  Ewald energy   TEWEN  =     -4863.96418287
  -Hartree energ DENC   =      -992.60541555
  -exchange      EXHF   =         0.00000000
  -V(xc)+E(xc)   XCENC  =      -772.40526023
  PAW double counting   =      6914.28622999    -6096.40506844
  entropy T*S    EENTRO =        -0.05157334
  eigenvalues    EBANDS =       237.72126327
  atomic energy  EATOM  =      4687.48422623
  Solvation  Ediel_sol  =         0.00000000
  ---------------------------------------------------
  free energy    TOTEN  =      -333.48710585 eV

  energy without entropy =     -333.43553251  energy(sigma->0) =     -333.46131918


--------------------------------------------------------------------------------------------------------




--------------------------------------- Iteration      1(   7)  ---------------------------------------


    POTLOK:  cpu time    0.0265: real time    0.0265
    SETDIJ:  cpu time    0.0169: real time    0.0169
     EDDAV:  cpu time    2.0128: real time    2.0156
       DOS:  cpu time    0.0013: real time    0.0013
    CHARGE:  cpu time    0.0476: real time    0.0477
    MIXING:  cpu time    0.0016: real time    0.0016
    --------------------------------------------
      LOOP:  cpu time    2.1066: real time    2.1096

 eigenvalue-minimisations  :  1808
 total energy-change (2. order) : 0.1026755E+03  (-0.5148391E+02)
 number of electron     109.0000269 magnetization 
 augmentation part       48.4047908 magnetization 

 Broyden mixing:
  rms(total) = 0.72943E+01    rms(broyden)= 0.72941E+01
  rms(prec ) = 0.13996E+02
  weight for this iteration     100.00

 eigenvalues of (default mixing * dielectric matrix)
  average eigenvalue GAMMA=   0.3339
  0.3339  0.3339

 Free energy of the ion-electron system (eV)
  ---------------------------------------------------
  alpha Z        PSCENC =       552.45267510
  Ewald energy   TEWEN  =     -4863.96418287
  -Hartree energ DENC   =     -1013.21023979
  -exchange      EXHF   =         0.00000000
  -V(xc)+E(xc)   XCENC  =      -771.05767267
  PAW double counting   =      7232.58238686    -6424.01253382
  entropy T*S    EENTRO =        -0.10923759
  eigenvalues    EBANDS =       369.02294868
  atomic energy  EATOM  =      4687.48422623
  Solvation  Ediel_sol  =         0.00000000
  ---------------------------------------------------
  free energy    TOTEN  =      -230.81162987 eV

  energy without entropy =     -230.70239228  energy(sigma->0) =     -230.75701108


--------------------------------------------------------------------------------------------------------




--------------------------------------- Iteration      1(   8)  ---------------------------------------


    POTLOK:  cpu time    0.0248: real time    0.0249
    SETDIJ:  cpu time    0.0166: real time    0.0166
     EDDAV:  cpu time    2.2125: real time    2.2156
       DOS:  cpu time    0.0015: real time    0.0015
    CHARGE:  cpu time    0.0519: real time    0.0520
    MIXING:  cpu time    0.0016: real time    0.0017
    --------------------------------------------
      LOOP:  cpu time    2.3090: real time    2.3122

 eigenvalue-minimisations  :  2048
 total energy-change (2. order) : 0.7569141E+02  (-0.5063193E+02)
 number of electron     109.0000080 magnetization 
 augmentation part       46.6166005 magnetization 

 Broyden mixing:
  rms(total) = 0.39763E+01    rms(broyden)= 0.39746E+01
  rms(prec ) = 0.74313E+01
  weight for this iteration     100.00

 eigenvalues of (default mixing * dielectric matrix)
  average eigenvalue GAMMA=   0.3781
  0.6148  0.2598  0.2598

 Free energy of the ion-electron system (eV)
  ---------------------------------------------------
  alpha Z        PSCENC =       552.45267510
  Ewald energy   TEWEN  =     -4863.96418287
  -Hartree energ DENC   =     -1038.11534379
  -exchange      EXHF   =         0.00000000
  -V(xc)+E(xc)   XCENC  =      -769.38406463
  PAW double counting   =      7388.98924858    -6586.93270029
  entropy T*S    EENTRO =        -0.08939831
  eigenvalues    EBANDS =       474.43932496
  atomic energy  EATOM  =      4687.48422623
  Solvation  Ediel_sol  =         0.00000000
  ---------------------------------------------------
  free energy    TOTEN  =      -155.12021502 eV

  energy without entropy =     -155.03081671  energy(sigma->0) =     -155.07551586


--------------------------------------------------------------------------------------------------------




--------------------------------------- Iteration      1(   9)  ---------------------------------------


    POTLOK:  cpu time    0.0256: real time    0.0257
    SETDIJ:  cpu time    0.0162: real time    0.0162
     EDDAV:  cpu time    2.3255: real time    2.3286
       DOS:  cpu time    0.0014: real time    0.0013
    CHARGE:  cpu time    0.0474: real time    0.0474
    MIXING:  cpu time    0.0016: real time    0.0016
    --------------------------------------------
      LOOP:  cpu time    2.4176: real time    2.4208

 eigenvalue-minimisations  :  2168
 total energy-change (2. order) : 0.3666000E+00  (-0.2389512E+02)
 number of electron     109.0000007 magnetization 
 augmentation part       44.7813717 magnetization 

 Broyden mixing:
  rms(total) = 0.32753E+01    rms(broyden)= 0.32742E+01
  rms(prec ) = 0.51720E+01
  weight for this iteration     100.00

 eigenvalues of (default mixing * dielectric matrix)
  average eigenvalue GAMMA=   0.5154
  1.3353  0.2846  0.2846  0.1572

 Free energy of the ion-electron system (eV)
  ---------------------------------------------------
  alpha Z        PSCENC =       552.45267510
  Ewald energy   TEWEN  =     -4863.96418287
  -Hartree energ DENC   =     -1023.20979771
  -exchange      EXHF   =         0.00000000
  -V(xc)+E(xc)   XCENC  =      -769.72326476
  PAW double counting   =      7570.43945759    -6769.73536744
  entropy T*S    EENTRO =        -0.10708362
  eigenvalues    EBANDS =       461.60972242
  atomic energy  EATOM  =      4687.48422623
  Solvation  Ediel_sol  =         0.00000000
  ---------------------------------------------------
  free energy    TOTEN  =      -154.75361507 eV

  energy without entropy =     -154.64653144  energy(sigma->0) =     -154.70007325


--------------------------------------------------------------------------------------------------------




--------------------------------------- Iteration      1(  10)  ---------------------------------------


    POTLOK:  cpu time    0.0242: real time    0.0242
    SETDIJ:  cpu time    0.0161: real time    0.0161
     EDDAV:  cpu time    2.3097: real time    2.3135
       DOS:  cpu time    0.0016: real time    0.0016
    CHARGE:  cpu time    0.0498: real time    0.0498
    MIXING:  cpu time    0.0018: real time    0.0018
    --------------------------------------------
      LOOP:  cpu time    2.4032: real time    2.4070

 eigenvalue-minimisations  :  2088
 total energy-change (2. order) :-0.4493744E+01  (-0.6905538E+01)
 number of electron     109.0000039 magnetization 
 augmentation part       45.2053667 magnetization 

 Broyden mixing:
  rms(total) = 0.29499E+01    rms(broyden)= 0.29489E+01
  rms(prec ) = 0.49868E+01
  weight for this iteration     100.00

 eigenvalues of (default mixing * dielectric matrix)
  average eigenvalue GAMMA=   0.5026
  1.5550  0.2890  0.2890  0.1899  0.1899

 Free energy of the ion-electron system (eV)
  ---------------------------------------------------
  alpha Z        PSCENC =       552.45267510
  Ewald energy   TEWEN  =     -4863.96418287
  -Hartree energ DENC   =     -1015.46800156
  -exchange      EXHF   =         0.00000000
  -V(xc)+E(xc)   XCENC  =      -769.08467406
  PAW double counting   =      8316.12916383    -7521.89591385
  entropy T*S    EENTRO =        -0.08692527
  eigenvalues    EBANDS =       455.18627386
  atomic energy  EATOM  =      4687.48422623
  Solvation  Ediel_sol  =         0.00000000
  ---------------------------------------------------
  free energy    TOTEN  =      -159.24735860 eV

  energy without entropy =     -159.16043333  energy(sigma->0) =     -159.20389597


--------------------------------------------------------------------------------------------------------




--------------------------------------- Iteration      1(  11)  ---------------------------------------


    POTLOK:  cpu time    0.0258: real time    0.0259
    SETDIJ:  cpu time    0.0162: real time    0.0162
     EDDAV:  cpu time    2.2889: real time    2.2921
       DOS:  cpu time    0.0023: real time    0.0023
    CHARGE:  cpu time    0.0520: real time    0.0521
    MIXING:  cpu time    0.0021: real time    0.0022
    --------------------------------------------
      LOOP:  cpu time    2.3874: real time    2.3907

 eigenvalue-minimisations  :  2096
 total energy-change (2. order) : 0.8553118E+01  (-0.3821114E+01)
 number of electron     109.0000068 magnetization 
 augmentation part       44.8323517 magnetization 

 Broyden mixing:
  rms(total) = 0.13861E+01    rms(broyden)= 0.13852E+01
  rms(prec ) = 0.16579E+01
  weight for this iteration     100.00

 eigenvalues of (default mixing * dielectric matrix)
  average eigenvalue GAMMA=   0.5336
  1.7839  0.2866  0.2866  0.3992  0.2849  0.1604

 Free energy of the ion-electron system (eV)
  ---------------------------------------------------
  alpha Z        PSCENC =       552.45267510
  Ewald energy   TEWEN  =     -4863.96418287
  -Hartree energ DENC   =     -1015.80907574
  -exchange      EXHF   =         0.00000000
  -V(xc)+E(xc)   XCENC  =      -768.55957145
  PAW double counting   =      8797.77301059    -8007.25233365
  entropy T*S    EENTRO =        -0.10421059
  eigenvalues    EBANDS =       467.28522205
  atomic energy  EATOM  =      4687.48422623
  Solvation  Ediel_sol  =         0.00000000
  ---------------------------------------------------
  free energy    TOTEN  =      -150.69424036 eV

  energy without entropy =     -150.59002976  energy(sigma->0) =     -150.64213506


--------------------------------------------------------------------------------------------------------




--------------------------------------- Iteration      1(  12)  ---------------------------------------


    POTLOK:  cpu time    0.0258: real time    0.0259
    SETDIJ:  cpu time    0.0172: real time    0.0198
     EDDAV:  cpu time    2.2106: real time    2.2137
       DOS:  cpu time    0.0016: real time    0.0016
    CHARGE:  cpu time    0.0506: real time    0.0507
    MIXING:  cpu time    0.0019: real time    0.0019
    --------------------------------------------
      LOOP:  cpu time    2.3078: real time    2.3136

 eigenvalue-minimisations  :  1984
 total energy-change (2. order) :-0.2584801E+00  (-0.8598942E+00)
 number of electron     109.0000100 magnetization 
 augmentation part       45.1588051 magnetization 

 Broyden mixing:
  rms(total) = 0.12170E+01    rms(broyden)= 0.12169E+01
  rms(prec ) = 0.16582E+01
  weight for this iteration     100.00

 eigenvalues of (default mixing * dielectric matrix)
  average eigenvalue GAMMA=   0.6257
  2.3863  0.7406  0.2892  0.2892  0.1714  0.2515  0.2515

 Free energy of the ion-electron system (eV)
  ---------------------------------------------------
  alpha Z        PSCENC =       552.45267510
  Ewald energy   TEWEN  =     -4863.96418287
  -Hartree energ DENC   =     -1007.17194998
  -exchange      EXHF   =         0.00000000
  -V(xc)+E(xc)   XCENC  =      -768.58673638
  PAW double counting   =      9029.36014563    -8238.33136857
  entropy T*S    EENTRO =        -0.09394692
  eigenvalues    EBANDS =       457.89841731
  atomic energy  EATOM  =      4687.48422623
  Solvation  Ediel_sol  =         0.00000000
  ---------------------------------------------------
  free energy    TOTEN  =      -150.95272046 eV

  energy without entropy =     -150.85877353  energy(sigma->0) =     -150.90574700


--------------------------------------------------------------------------------------------------------




--------------------------------------- Iteration      1(  13)  ---------------------------------------


    POTLOK:  cpu time    0.0245: real time    0.0246
    SETDIJ:  cpu time    0.0162: real time    0.0162
     EDDAV:  cpu time    2.2061: real time    2.2089
       DOS:  cpu time    0.0016: real time    0.0016
    CHARGE:  cpu time    0.0510: real time    0.0511
    MIXING:  cpu time    0.0019: real time    0.0019
    --------------------------------------------
      LOOP:  cpu time    2.3013: real time    2.3042

 eigenvalue-minimisations  :  2024
 total energy-change (2. order) : 0.4774630E-01  (-0.5564909E+00)
 number of electron     109.0000010 magnetization 
 augmentation part       45.3702849 magnetization 

 Broyden mixing:
  rms(total) = 0.12762E+01    rms(broyden)= 0.12757E+01
  rms(prec ) = 0.19664E+01
  weight for this iteration     100.00

 eigenvalues of (default mixing * dielectric matrix)
  average eigenvalue GAMMA=   0.6175
  2.2636  0.7621  0.7621  0.2884  0.2884  0.2493  0.1673  0.1589

 Free energy of the ion-electron system (eV)
  ---------------------------------------------------
  alpha Z        PSCENC =       552.45267510
  Ewald energy   TEWEN  =     -4863.96418287
  -Hartree energ DENC   =     -1006.59800985
  -exchange      EXHF   =         0.00000000
  -V(xc)+E(xc)   XCENC  =      -768.00152827
  PAW double counting   =      9467.50769459    -8677.30659656
  entropy T*S    EENTRO =        -0.12332608
  eigenvalues    EBANDS =       457.64407358
  atomic energy  EATOM  =      4687.48422623
  Solvation  Ediel_sol  =         0.00000000
  ---------------------------------------------------
  free energy    TOTEN  =      -150.90497416 eV

  energy without entropy =     -150.78164807  energy(sigma->0) =     -150.84331112


--------------------------------------------------------------------------------------------------------




--------------------------------------- Iteration      1(  14)  ---------------------------------------


    POTLOK:  cpu time    0.0246: real time    0.0247
    SETDIJ:  cpu time    0.0158: real time    0.0158
     EDDAV:  cpu time    2.2404: real time    2.2432
       DOS:  cpu time    0.0017: real time    0.0017
    CHARGE:  cpu time    0.0544: real time    0.0544
    MIXING:  cpu time    0.0026: real time    0.0027
    --------------------------------------------
      LOOP:  cpu time    2.3395: real time    2.3426

 eigenvalue-minimisations  :  2064
 total energy-change (2. order) : 0.2176085E+00  (-0.6697843E+00)
 number of electron     109.0000112 magnetization 
 augmentation part       45.6846301 magnetization 

 Broyden mixing:
  rms(total) = 0.92784E+00    rms(broyden)= 0.92745E+00
  rms(prec ) = 0.15273E+01
  weight for this iteration     100.00

 eigenvalues of (default mixing * dielectric matrix)
  average eigenvalue GAMMA=   0.6146
  2.2386  1.1286  0.7881  0.2878  0.2878  0.2403  0.2403  0.1706  0.1491

 Free energy of the ion-electron system (eV)
  ---------------------------------------------------
  alpha Z        PSCENC =       552.45267510
  Ewald energy   TEWEN  =     -4863.96418287
  -Hartree energ DENC   =     -1001.94108126
  -exchange      EXHF   =         0.00000000
  -V(xc)+E(xc)   XCENC  =      -768.24422118
  PAW double counting   =      9473.00230486    -8681.94765407
  entropy T*S    EENTRO =        -0.11664171
  eigenvalues    EBANDS =       452.58720925
  atomic energy  EATOM  =      4687.48422623
  Solvation  Ediel_sol  =         0.00000000
  ---------------------------------------------------
  free energy    TOTEN  =      -150.68736566 eV

  energy without entropy =     -150.57072394  energy(sigma->0) =     -150.62904480


--------------------------------------------------------------------------------------------------------




--------------------------------------- Iteration      1(  15)  ---------------------------------------


    POTLOK:  cpu time    0.0254: real time    0.0256
    SETDIJ:  cpu time    0.0175: real time    0.0175
     EDDAV:  cpu time    2.1690: real time    2.1719
       DOS:  cpu time    0.0016: real time    0.0016
    CHARGE:  cpu time    0.0517: real time    0.0517
    MIXING:  cpu time    0.0022: real time    0.0022
    --------------------------------------------
      LOOP:  cpu time    2.2673: real time    2.2704

 eigenvalue-minimisations  :  1976
 total energy-change (2. order) : 0.1572974E+00  (-0.1810882E+00)
 number of electron     109.0000091 magnetization 
 augmentation part       45.5916871 magnetization 

 Broyden mixing:
  rms(total) = 0.80734E+00    rms(broyden)= 0.80727E+00
  rms(prec ) = 0.11590E+01
  weight for this iteration     100.00

 eigenvalues of (default mixing * dielectric matrix)
  average eigenvalue GAMMA=   0.5918
  2.2225  1.2952  0.7799  0.2875  0.2875  0.2591  0.2591  0.1997  0.1708  0.1563

 Free energy of the ion-electron system (eV)
  ---------------------------------------------------
  alpha Z        PSCENC =       552.45267510
  Ewald energy   TEWEN  =     -4863.96418287
  -Hartree energ DENC   =     -1005.26947027
  -exchange      EXHF   =         0.00000000
  -V(xc)+E(xc)   XCENC  =      -768.16595307
  PAW double counting   =      9460.64796745    -8669.06283721
  entropy T*S    EENTRO =        -0.11247442
  eigenvalues    EBANDS =       455.45998082
  atomic energy  EATOM  =      4687.48422623
  Solvation  Ediel_sol  =         0.00000000
  ---------------------------------------------------
  free energy    TOTEN  =      -150.53006825 eV

  energy without entropy =     -150.41759383  energy(sigma->0) =     -150.47383104


--------------------------------------------------------------------------------------------------------




--------------------------------------- Iteration      1(  16)  ---------------------------------------


    POTLOK:  cpu time    0.0257: real time    0.0259
    SETDIJ:  cpu time    0.0167: real time    0.0167
     EDDAV:  cpu time    2.0253: real time    2.0280
       DOS:  cpu time    0.0016: real time    0.0016
    CHARGE:  cpu time    0.0485: real time    0.0486
    MIXING:  cpu time    0.0021: real time    0.0021
    --------------------------------------------
      LOOP:  cpu time    2.1199: real time    2.1229

 eigenvalue-minimisations  :  1792
 total energy-change (2. order) : 0.8579660E-01  (-0.5461363E-01)
 number of electron     109.0000092 magnetization 
 augmentation part       45.5927657 magnetization 

 Broyden mixing:
  rms(total) = 0.71021E+00    rms(broyden)= 0.71020E+00
  rms(prec ) = 0.10122E+01
  weight for this iteration     100.00

 eigenvalues of (default mixing * dielectric matrix)
  average eigenvalue GAMMA=   0.6299
  2.4767  1.5665  0.6444  0.6444  0.2856  0.2856  0.3057  0.2254  0.1727  0.1727
  0.1495

 Free energy of the ion-electron system (eV)
  ---------------------------------------------------
  alpha Z        PSCENC =       552.45267510
  Ewald energy   TEWEN  =     -4863.96418287
  -Hartree energ DENC   =     -1005.06134920
  -exchange      EXHF   =         0.00000000
  -V(xc)+E(xc)   XCENC  =      -768.13430799
  PAW double counting   =      9474.95565973    -8683.02705637
  entropy T*S    EENTRO =        -0.11045146
  eigenvalues    EBANDS =       454.96051519
  atomic energy  EATOM  =      4687.48422623
  Solvation  Ediel_sol  =         0.00000000
  ---------------------------------------------------
  free energy    TOTEN  =      -150.44427165 eV

  energy without entropy =     -150.33382019  energy(sigma->0) =     -150.38904592


--------------------------------------------------------------------------------------------------------




--------------------------------------- Iteration      1(  17)  ---------------------------------------


    POTLOK:  cpu time    0.0236: real time    0.0237
    SETDIJ:  cpu time    0.0159: real time    0.0159
     EDDAV:  cpu time    2.2939: real time    2.2965
       DOS:  cpu time    0.0016: real time    0.0016
    CHARGE:  cpu time    0.0498: real time    0.0498
    MIXING:  cpu time    0.0022: real time    0.0022
    --------------------------------------------
      LOOP:  cpu time    2.3871: real time    2.3898

 eigenvalue-minimisations  :  2144
 total energy-change (2. order) : 0.1113230E+00  (-0.2547864E-01)
 number of electron     109.0000085 magnetization 
 augmentation part       45.6291169 magnetization 

 Broyden mixing:
  rms(total) = 0.52553E+00    rms(broyden)= 0.52547E+00
  rms(prec ) = 0.63600E+00
  weight for this iteration     100.00

 eigenvalues of (default mixing * dielectric matrix)
  average eigenvalue GAMMA=   0.6172
  2.2129  1.8505  0.6376  0.5719  0.5719  0.2867  0.2867  0.2387  0.2387  0.1854
  0.1733  0.1513

 Free energy of the ion-electron system (eV)
  ---------------------------------------------------
  alpha Z        PSCENC =       552.45267510
  Ewald energy   TEWEN  =     -4863.96418287
  -Hartree energ DENC   =     -1005.20137489
  -exchange      EXHF   =         0.00000000
  -V(xc)+E(xc)   XCENC  =      -768.03914973
  PAW double counting   =      9515.82210116    -8723.16292679
  entropy T*S    EENTRO =        -0.11423851
  eigenvalues    EBANDS =       454.38992170
  atomic energy  EATOM  =      4687.48422623
  Solvation  Ediel_sol  =         0.00000000
  ---------------------------------------------------
  free energy    TOTEN  =      -150.33294860 eV

  energy without entropy =     -150.21871009  energy(sigma->0) =     -150.27582935


--------------------------------------------------------------------------------------------------------




--------------------------------------- Iteration      1(  18)  ---------------------------------------


    POTLOK:  cpu time    0.0252: real time    0.0254
    SETDIJ:  cpu time    0.0166: real time    0.0166
     EDDAV:  cpu time    2.0662: real time    2.0695
       DOS:  cpu time    0.0017: real time    0.0017
    CHARGE:  cpu time    0.0512: real time    0.0512
    MIXING:  cpu time    0.0025: real time    0.0025
    --------------------------------------------
      LOOP:  cpu time    2.1634: real time    2.1669

 eigenvalue-minimisations  :  1832
 total energy-change (2. order) : 0.8465230E-02  (-0.7483054E-02)
 number of electron     109.0000083 magnetization 
 augmentation part       45.6015621 magnetization 

 Broyden mixing:
  rms(total) = 0.48573E+00    rms(broyden)= 0.48572E+00
  rms(prec ) = 0.56460E+00
  weight for this iteration     100.00

 eigenvalues of (default mixing * dielectric matrix)
  average eigenvalue GAMMA=   0.6335
  2.0432  2.0432  0.8005  0.8005  0.7806  0.2867  0.2867  0.2618  0.2375  0.1967
  0.1501  0.1690  0.1793

 Free energy of the ion-electron system (eV)
  ---------------------------------------------------
  alpha Z        PSCENC =       552.45267510
  Ewald energy   TEWEN  =     -4863.96418287
  -Hartree energ DENC   =     -1005.70772757
  -exchange      EXHF   =         0.00000000
  -V(xc)+E(xc)   XCENC  =      -768.01840246
  PAW double counting   =      9505.22944475    -8712.39791105
  entropy T*S    EENTRO =        -0.11596999
  eigenvalues    EBANDS =       454.71336449
  atomic energy  EATOM  =      4687.48422623
  Solvation  Ediel_sol  =         0.00000000
  ---------------------------------------------------
  free energy    TOTEN  =      -150.32448337 eV

  energy without entropy =     -150.20851339  energy(sigma->0) =     -150.26649838


--------------------------------------------------------------------------------------------------------




--------------------------------------- Iteration      1(  19)  ---------------------------------------


    POTLOK:  cpu time    0.0253: real time    0.0254
    SETDIJ:  cpu time    0.0162: real time    0.0162
     EDDAV:  cpu time    1.9405: real time    1.9428
       DOS:  cpu time    0.0016: real time    0.0016
    CHARGE:  cpu time    0.0511: real time    0.0511
    MIXING:  cpu time    0.0025: real time    0.0025
    --------------------------------------------
      LOOP:  cpu time    2.0372: real time    2.0396

 eigenvalue-minimisations  :  1856
 total energy-change (2. order) :-0.1362773E-02  (-0.2902506E-02)
 number of electron     109.0000085 magnetization 
 augmentation part       45.5839558 magnetization 

 Broyden mixing:
  rms(total) = 0.44077E+00    rms(broyden)= 0.44077E+00
  rms(prec ) = 0.53768E+00
  weight for this iteration     100.00

 eigenvalues of (default mixing * dielectric matrix)
  average eigenvalue GAMMA=   0.7428
  2.5004  2.5004  1.3954  0.8037  0.8037  0.6302  0.2863  0.2863  0.2824  0.2298
  0.1508  0.1795  0.1795  0.1700

 Free energy of the ion-electron system (eV)
  ---------------------------------------------------
  alpha Z        PSCENC =       552.45267510
  Ewald energy   TEWEN  =     -4863.96418287
  -Hartree energ DENC   =     -1006.21373321
  -exchange      EXHF   =         0.00000000
  -V(xc)+E(xc)   XCENC  =      -768.06083975
  PAW double counting   =      9447.71630148    -8654.50917066
  entropy T*S    EENTRO =        -0.11514340
  eigenvalues    EBANDS =       454.88402095
  atomic energy  EATOM  =      4687.48422623
  Solvation  Ediel_sol  =         0.00000000
  ---------------------------------------------------
  free energy    TOTEN  =      -150.32584615 eV

  energy without entropy =     -150.21070274  energy(sigma->0) =     -150.26827445


--------------------------------------------------------------------------------------------------------




--------------------------------------- Iteration      1(  20)  ---------------------------------------


    POTLOK:  cpu time    0.0247: real time    0.0248
    SETDIJ:  cpu time    0.0174: real time    0.0174
     EDDAV:  cpu time    2.2339: real time    2.2366
       DOS:  cpu time    0.0015: real time    0.0015
    CHARGE:  cpu time    0.0504: real time    0.0504
    MIXING:  cpu time    0.0026: real time    0.0026
    --------------------------------------------
      LOOP:  cpu time    2.3305: real time    2.3334

 eigenvalue-minimisations  :  2120
 total energy-change (2. order) : 0.1536176E-01  (-0.3142876E-02)
 number of electron     109.0000081 magnetization 
 augmentation part       45.6001949 magnetization 

 Broyden mixing:
  rms(total) = 0.30763E+00    rms(broyden)= 0.30761E+00
  rms(prec ) = 0.35161E+00
  weight for this iteration     100.00

 eigenvalues of (default mixing * dielectric matrix)
  average eigenvalue GAMMA=   0.7309
  2.8112  1.9296  1.8557  0.7846  0.7846  0.6954  0.2864  0.2864  0.3408  0.2776
  0.2291  0.1508  0.1809  0.1809  0.1694

 Free energy of the ion-electron system (eV)
  ---------------------------------------------------
  alpha Z        PSCENC =       552.45267510
  Ewald energy   TEWEN  =     -4863.96418287
  -Hartree energ DENC   =     -1006.37697450
  -exchange      EXHF   =         0.00000000
  -V(xc)+E(xc)   XCENC  =      -768.00205639
  PAW double counting   =      9450.57330691    -8656.88202382
  entropy T*S    EENTRO =        -0.11693144
  eigenvalues    EBANDS =       454.52147641
  atomic energy  EATOM  =      4687.48422623
  Solvation  Ediel_sol  =         0.00000000
  ---------------------------------------------------
  free energy    TOTEN  =      -150.31048438 eV

  energy without entropy =     -150.19355295  energy(sigma->0) =     -150.25201866


--------------------------------------------------------------------------------------------------------




--------------------------------------- Iteration      1(  21)  ---------------------------------------


    POTLOK:  cpu time    0.0244: real time    0.0244
    SETDIJ:  cpu time    0.0163: real time    0.0164
     EDDAV:  cpu time    2.2314: real time    2.2346
       DOS:  cpu time    0.0016: real time    0.0016
    CHARGE:  cpu time    0.0514: real time    0.0514
    MIXING:  cpu time    0.0027: real time    0.0027
    --------------------------------------------
      LOOP:  cpu time    2.3278: real time    2.3311

 eigenvalue-minimisations  :  2048
 total energy-change (2. order) : 0.2393547E-02  (-0.1483078E-02)
 number of electron     109.0000078 magnetization 
 augmentation part       45.5992417 magnetization 

 Broyden mixing:
  rms(total) = 0.26626E+00    rms(broyden)= 0.26625E+00
  rms(prec ) = 0.29950E+00
  weight for this iteration     100.00

 eigenvalues of (default mixing * dielectric matrix)
  average eigenvalue GAMMA=   0.7387
  2.5513  2.5513  1.5968  0.8892  0.8892  0.7718  0.5882  0.2864  0.2864  0.2798
  0.1508  0.1698  0.1794  0.1794  0.2264  0.2229

 Free energy of the ion-electron system (eV)
  ---------------------------------------------------
  alpha Z        PSCENC =       552.45267510
  Ewald energy   TEWEN  =     -4863.96418287
  -Hartree energ DENC   =     -1006.44069764
  -exchange      EXHF   =         0.00000000
  -V(xc)+E(xc)   XCENC  =      -767.98613981
  PAW double counting   =      9451.65907543    -8657.84988467
  entropy T*S    EENTRO =        -0.11746035
  eigenvalues    EBANDS =       454.45429775
  atomic energy  EATOM  =      4687.48422623
  Solvation  Ediel_sol  =         0.00000000
  ---------------------------------------------------
  free energy    TOTEN  =      -150.30809084 eV

  energy without entropy =     -150.19063048  energy(sigma->0) =     -150.24936066


--------------------------------------------------------------------------------------------------------




--------------------------------------- Iteration      1(  22)  ---------------------------------------


    POTLOK:  cpu time    0.0244: real time    0.0245
    SETDIJ:  cpu time    0.0156: real time    0.0156
     EDDAV:  cpu time    2.1276: real time    2.1388
       DOS:  cpu time    0.0016: real time    0.0016
    CHARGE:  cpu time    0.0516: real time    0.0516
    MIXING:  cpu time    0.0034: real time    0.0034
    --------------------------------------------
      LOOP:  cpu time    2.2242: real time    2.2356

 eigenvalue-minimisations  :  1904
 total energy-change (2. order) : 0.1427997E-02  (-0.2421432E-03)
 number of electron     109.0000079 magnetization 
 augmentation part       45.5942353 magnetization 

 Broyden mixing:
  rms(total) = 0.23424E+00    rms(broyden)= 0.23424E+00
  rms(prec ) = 0.26794E+00
  weight for this iteration     100.00

 eigenvalues of (default mixing * dielectric matrix)
  average eigenvalue GAMMA=   0.8152
  2.7198  2.7198  1.6677  1.6677  0.8944  0.8051  0.8051  0.5860  0.2864  0.2864
  0.2816  0.2308  0.2262  0.1508  0.1696  0.1802  0.1802

 Free energy of the ion-electron system (eV)
  ---------------------------------------------------
  alpha Z        PSCENC =       552.45267510
  Ewald energy   TEWEN  =     -4863.96418287
  -Hartree energ DENC   =     -1006.55329888
  -exchange      EXHF   =         0.00000000
  -V(xc)+E(xc)   XCENC  =      -767.99564142
  PAW double counting   =      9438.58950192    -8644.77309864
  entropy T*S    EENTRO =        -0.11719529
  eigenvalues    EBANDS =       454.57035101
  atomic energy  EATOM  =      4687.48422623
  Solvation  Ediel_sol  =         0.00000000
  ---------------------------------------------------
  free energy    TOTEN  =      -150.30666284 eV

  energy without entropy =     -150.18946756  energy(sigma->0) =     -150.24806520


--------------------------------------------------------------------------------------------------------




--------------------------------------- Iteration      1(  23)  ---------------------------------------


    POTLOK:  cpu time    0.0253: real time    0.0254
    SETDIJ:  cpu time    0.0195: real time    0.0195
     EDDAV:  cpu time    2.2852: real time    2.2883
       DOS:  cpu time    0.0016: real time    0.0015
    CHARGE:  cpu time    0.0505: real time    0.0505
    MIXING:  cpu time    0.0030: real time    0.0030
    --------------------------------------------
      LOOP:  cpu time    2.3850: real time    2.3883

 eigenvalue-minimisations  :  2168
 total energy-change (2. order) : 0.2794429E-02  (-0.3872751E-03)
 number of electron     109.0000079 magnetization 
 augmentation part       45.5899358 magnetization 

 Broyden mixing:
  rms(total) = 0.16406E+00    rms(broyden)= 0.16406E+00
  rms(prec ) = 0.18883E+00
  weight for this iteration     100.00

 eigenvalues of (default mixing * dielectric matrix)
  average eigenvalue GAMMA=   0.8881
  3.1355  3.1355  1.9561  1.8249  0.9839  0.8541  0.8541  0.6251  0.6251  0.2864
  0.2864  0.2812  0.2301  0.2259  0.1508  0.1696  0.1801  0.1801

 Free energy of the ion-electron system (eV)
  ---------------------------------------------------
  alpha Z        PSCENC =       552.45267510
  Ewald energy   TEWEN  =     -4863.96418287
  -Hartree energ DENC   =     -1006.63123875
  -exchange      EXHF   =         0.00000000
  -V(xc)+E(xc)   XCENC  =      -767.99393121
  PAW double counting   =      9428.71393079    -8634.86143847
  entropy T*S    EENTRO =        -0.11732398
  eigenvalues    EBANDS =       454.61341476
  atomic energy  EATOM  =      4687.48422623
  Solvation  Ediel_sol  =         0.00000000
  ---------------------------------------------------
  free energy    TOTEN  =      -150.30386841 eV

  energy without entropy =     -150.18654443  energy(sigma->0) =     -150.24520642


--------------------------------------------------------------------------------------------------------




--------------------------------------- Iteration      1(  24)  ---------------------------------------


    POTLOK:  cpu time    0.0246: real time    0.0247
    SETDIJ:  cpu time    0.0161: real time    0.0161
     EDDAV:  cpu time    2.1323: real time    2.1352
       DOS:  cpu time    0.0016: real time    0.0016
    CHARGE:  cpu time    0.0510: real time    0.0510
    MIXING:  cpu time    0.0031: real time    0.0031
    --------------------------------------------
      LOOP:  cpu time    2.2287: real time    2.2317

 eigenvalue-minimisations  :  1872
 total energy-change (2. order) : 0.1514514E-02  (-0.2025626E-03)
 number of electron     109.0000078 magnetization 
 augmentation part       45.5926780 magnetization 

 Broyden mixing:
  rms(total) = 0.99434E-01    rms(broyden)= 0.99433E-01
  rms(prec ) = 0.11684E+00
  weight for this iteration     100.00

 eigenvalues of (default mixing * dielectric matrix)
  average eigenvalue GAMMA=   1.0006
  4.9541  2.8930  2.0040  2.0040  1.1263  0.8465  0.8465  0.8719  0.8719  0.6025
  0.2864  0.2864  0.2813  0.2301  0.2260  0.1508  0.1696  0.1801  0.1801

 Free energy of the ion-electron system (eV)
  ---------------------------------------------------
  alpha Z        PSCENC =       552.45267510
  Ewald energy   TEWEN  =     -4863.96418287
  -Hartree energ DENC   =     -1006.64536784
  -exchange      EXHF   =         0.00000000
  -V(xc)+E(xc)   XCENC  =      -767.99070947
  PAW double counting   =      9420.57435430    -8626.63906986
  entropy T*S    EENTRO =        -0.11760987
  eigenvalues    EBANDS =       454.54333039
  atomic energy  EATOM  =      4687.48422623
  Solvation  Ediel_sol  =         0.00000000
  ---------------------------------------------------
  free energy    TOTEN  =      -150.30235390 eV

  energy without entropy =     -150.18474403  energy(sigma->0) =     -150.24354896


--------------------------------------------------------------------------------------------------------




--------------------------------------- Iteration      1(  25)  ---------------------------------------


    POTLOK:  cpu time    0.0246: real time    0.0247
    SETDIJ:  cpu time    0.0162: real time    0.0163
     EDDAV:  cpu time    2.1726: real time    2.1754
       DOS:  cpu time    0.0017: real time    0.0017
    CHARGE:  cpu time    0.0507: real time    0.0508
    MIXING:  cpu time    0.0033: real time    0.0033
    --------------------------------------------
      LOOP:  cpu time    2.2691: real time    2.2721

 eigenvalue-minimisations  :  1912
 total energy-change (2. order) : 0.8590444E-03  (-0.1750908E-03)
 number of electron     109.0000077 magnetization 
 augmentation part       45.5931087 magnetization 

 Broyden mixing:
  rms(total) = 0.41648E-01    rms(broyden)= 0.41644E-01
  rms(prec ) = 0.48313E-01
  weight for this iteration     100.00

 eigenvalues of (default mixing * dielectric matrix)
  average eigenvalue GAMMA=   1.0486
  6.1487  2.8284  2.0572  2.0572  1.1040  1.1040  0.8770  0.8179  0.8179  0.5843
  0.5843  0.2864  0.2864  0.2812  0.2301  0.2260  0.1508  0.1696  0.1801  0.1801

 Free energy of the ion-electron system (eV)
  ---------------------------------------------------
  alpha Z        PSCENC =       552.45267510
  Ewald energy   TEWEN  =     -4863.96418287
  -Hartree energ DENC   =     -1006.70014982
  -exchange      EXHF   =         0.00000000
  -V(xc)+E(xc)   XCENC  =      -767.98782360
  PAW double counting   =      9411.52144359    -8617.48546313
  entropy T*S    EENTRO =        -0.11796422
  eigenvalues    EBANDS =       454.49574388
  atomic energy  EATOM  =      4687.48422623
  Solvation  Ediel_sol  =         0.00000000
  ---------------------------------------------------
  free energy    TOTEN  =      -150.30149485 eV

  energy without entropy =     -150.18353064  energy(sigma->0) =     -150.24251274


--------------------------------------------------------------------------------------------------------




--------------------------------------- Iteration      1(  26)  ---------------------------------------


    POTLOK:  cpu time    0.0253: real time    0.0254
    SETDIJ:  cpu time    0.0162: real time    0.0162
     EDDAV:  cpu time    2.0370: real time    2.0394
       DOS:  cpu time    0.0016: real time    0.0016
    CHARGE:  cpu time    0.0513: real time    0.0514
    MIXING:  cpu time    0.0035: real time    0.0035
    --------------------------------------------
      LOOP:  cpu time    2.1349: real time    2.1376

 eigenvalue-minimisations  :  1792
 total energy-change (2. order) : 0.1200277E-03  (-0.6349462E-04)
 number of electron     109.0000077 magnetization 
 augmentation part       45.5933776 magnetization 

 Broyden mixing:
  rms(total) = 0.15279E-01    rms(broyden)= 0.15277E-01
  rms(prec ) = 0.18510E-01
  weight for this iteration     100.00

 eigenvalues of (default mixing * dielectric matrix)
  average eigenvalue GAMMA=   1.1097
  7.4726  2.6870  2.1425  2.1425  1.0965  1.0965  0.8876  0.8876  0.7828  0.7828
  0.7319  0.6017  0.2864  0.2864  0.2812  0.2301  0.2260  0.1508  0.1696  0.1801
  0.1801

 Free energy of the ion-electron system (eV)
  ---------------------------------------------------
  alpha Z        PSCENC =       552.45267510
  Ewald energy   TEWEN  =     -4863.96418287
  -Hartree energ DENC   =     -1006.72147110
  -exchange      EXHF   =         0.00000000
  -V(xc)+E(xc)   XCENC  =      -767.98654593
  PAW double counting   =      9407.78679740    -8613.71859131
  entropy T*S    EENTRO =        -0.11808460
  eigenvalues    EBANDS =       454.48380227
  atomic energy  EATOM  =      4687.48422623
  Solvation  Ediel_sol  =         0.00000000
  ---------------------------------------------------
  free energy    TOTEN  =      -150.30137483 eV

  energy without entropy =     -150.18329022  energy(sigma->0) =     -150.24233252


--------------------------------------------------------------------------------------------------------




--------------------------------------- Iteration      1(  27)  ---------------------------------------


    POTLOK:  cpu time    0.0247: real time    0.0249
    SETDIJ:  cpu time    0.0163: real time    0.0163
     EDDAV:  cpu time    2.0745: real time    2.0773
       DOS:  cpu time    0.0016: real time    0.0016
    CHARGE:  cpu time    0.0516: real time    0.0517
    MIXING:  cpu time    0.0041: real time    0.0041
    --------------------------------------------
      LOOP:  cpu time    2.1728: real time    2.1758

 eigenvalue-minimisations  :  1808
 total energy-change (2. order) : 0.1856287E-04  (-0.1695423E-04)
 number of electron     109.0000077 magnetization 
 augmentation part       45.5940458 magnetization 

 Broyden mixing:
  rms(total) = 0.51763E-02    rms(broyden)= 0.51734E-02
  rms(prec ) = 0.60959E-02
  weight for this iteration     100.00

 eigenvalues of (default mixing * dielectric matrix)
  average eigenvalue GAMMA=   1.1017
  5.2539  3.0599  2.0691  2.0691  2.0465  2.0465  1.0585  1.0585  0.8383  0.8383
  0.7433  0.6037  0.5615  0.2864  0.2864  0.2812  0.2301  0.2260  0.1508  0.1696
  0.1801  0.1801

 Free energy of the ion-electron system (eV)
  ---------------------------------------------------
  alpha Z        PSCENC =       552.45267510
  Ewald energy   TEWEN  =     -4863.96418287
  -Hartree energ DENC   =     -1006.72377044
  -exchange      EXHF   =         0.00000000
  -V(xc)+E(xc)   XCENC  =      -767.98539611
  PAW double counting   =      9405.60704492    -8611.51701655
  entropy T*S    EENTRO =        -0.11819057
  eigenvalues    EBANDS =       454.46325403
  atomic energy  EATOM  =      4687.48422623
  Solvation  Ediel_sol  =         0.00000000
  ---------------------------------------------------
  free energy    TOTEN  =      -150.30135626 eV

  energy without entropy =     -150.18316569  energy(sigma->0) =     -150.24226098


--------------------------------------------------------------------------------------------------------




--------------------------------------- Iteration      1(  28)  ---------------------------------------


    POTLOK:  cpu time    0.0256: real time    0.0257
    SETDIJ:  cpu time    0.0170: real time    0.0197
     EDDAV:  cpu time    1.3300: real time    1.3316
       DOS:  cpu time    0.0016: real time    0.0016
    --------------------------------------------
      LOOP:  cpu time    1.3742: real time    1.3786

 eigenvalue-minimisations  :  1016
 total energy-change (2. order) : 0.1360733E-05  (-0.2936071E-05)
 number of electron     109.0000077 magnetization 
 augmentation part       45.5940458 magnetization 

 Free energy of the ion-electron system (eV)
  ---------------------------------------------------
  alpha Z        PSCENC =       552.45267510
  Ewald energy   TEWEN  =     -4863.96418287
  -Hartree energ DENC   =     -1006.71565279
  -exchange      EXHF   =         0.00000000
[...]
     31       4.5894      2.00000
     32       4.6742      2.00000
     33       4.7018      2.00000
     34       4.8876      2.00000
     35       4.9102      2.00000
     36       5.0045      2.00000
     37       5.0638      2.00000
     38       5.1024      2.00000
     39       5.1702      2.00000
     40       5.2022      2.00000
     41       5.2611      2.00000
     42       5.3237      2.00000
     43       5.3568      2.00000
     44       5.3710      2.00000
     45       5.3979      2.00000
     46       5.6519      2.00000
     47       5.6874      2.00000
     48       5.7162      2.00000
     49       5.7650      2.00000
     50       5.8003      2.00000
     51       5.8615      2.00000
     52       5.8847      2.00000
     53       5.9037      1.99999
     54       5.9198      1.99997
     55       6.1350      1.75226
     56       6.3321      0.10303
     57       6.3632      0.03844
     58       6.4003      0.00944
     59       6.4947      0.00008
     60       6.6373      0.00000
     61       6.6691      0.00000
     62       6.7465      0.00000
     63       6.7795      0.00000
     64       6.8229      0.00000
     65       6.8728      0.00000
     66       6.9580      0.00000
     67       7.1299      0.00000
     68       7.2576      0.00000

 k-point     7 :       0.0000    0.5000    0.3333
  band No.  band energies     occupation 
      1       0.5747      2.00000
      2       1.1517      2.00000
      3       2.1697      2.00000
      4       2.4880      2.00000
      5       2.5481      2.00000
      6       2.8337      2.00000
      7       2.8895      2.00000
      8       2.9805      2.00000
      9       3.0243      2.00000
     10       3.0541      2.00000
     11       3.0889      2.00000
     12       3.1363      2.00000
     13       3.1454      2.00000
     14       3.3524      2.00000
     15       3.4177      2.00000
     16       3.4213      2.00000
     17       3.4952      2.00000
     18       3.5780      2.00000
     19       3.6346      2.00000
     20       3.7617      2.00000
     21       3.8535      2.00000
     22       3.9389      2.00000
     23       4.0260      2.00000
     24       4.0704      2.00000
     25       4.0810      2.00000
     26       4.2525      2.00000
     27       4.2816      2.00000
     28       4.3057      2.00000
     29       4.4724      2.00000
     30       4.6798      2.00000
     31       4.7026      2.00000
     32       4.7073      2.00000
     33       4.7473      2.00000
     34       4.7717      2.00000
     35       4.8865      2.00000
     36       4.8917      2.00000
     37       5.0580      2.00000
     38       5.1000      2.00000
     39       5.1397      2.00000
     40       5.2731      2.00000
     41       5.3142      2.00000
     42       5.3294      2.00000
     43       5.4642      2.00000
     44       5.4771      2.00000
     45       5.5066      2.00000
     46       5.5310      2.00000
     47       5.6175      2.00000
     48       5.6650      2.00000
     49       5.7094      2.00000
     50       5.7392      2.00000
     51       5.8490      2.00000
     52       6.0242      1.99354
     53       6.0468      1.98376
     54       6.2023      1.16254
     55       6.2303      0.84787
     56       6.2810      0.36347
     57       6.3620      0.03998
     58       6.4518      0.00089
     59       6.5563      0.00000
     60       6.6250      0.00000
     61       6.7103      0.00000
     62       6.7370      0.00000
     63       6.7649      0.00000
     64       6.9131      0.00000
     65       7.0263      0.00000
     66       7.1544      0.00000
     67       7.2132      0.00000
     68       7.3622      0.00000

 k-point     8 :       0.5000    0.5000    0.3333
  band No.  band energies     occupation 
      1       1.2233      2.00000
      2       1.3754      2.00000
      3       1.8062      2.00000
      4       1.8852      2.00000
      5       2.5989      2.00000
      6       2.7201      2.00000
      7       2.8113      2.00000
      8       2.8826      2.00000
      9       3.0112      2.00000
     10       3.1058      2.00000
     11       3.1616      2.00000
     12       3.1979      2.00000
     13       3.3540      2.00000
     14       3.3712      2.00000
     15       3.3845      2.00000
     16       3.4420      2.00000
     17       3.4967      2.00000
     18       3.6401      2.00000
     19       3.7004      2.00000
     20       3.7577      2.00000
     21       3.7646      2.00000
     22       3.8496      2.00000
     23       3.9196      2.00000
     24       4.0076      2.00000
     25       4.2463      2.00000
     26       4.3192      2.00000
     27       4.3588      2.00000
     28       4.4815      2.00000
     29       4.5549      2.00000
     30       4.5801      2.00000
     31       4.6810      2.00000
     32       4.7133      2.00000
     33       4.7709      2.00000
     34       4.8106      2.00000
     35       4.8162      2.00000
     36       4.9493      2.00000
     37       4.9920      2.00000
     38       5.1045      2.00000
     39       5.2391      2.00000
     40       5.2865      2.00000
     41       5.3216      2.00000
     42       5.3326      2.00000
     43       5.3865      2.00000
     44       5.4249      2.00000
     45       5.5097      2.00000
     46       5.5526      2.00000
     47       5.5739      2.00000
     48       5.6893      2.00000
     49       5.7089      2.00000
     50       5.7684      2.00000
     51       5.8684      2.00000
     52       5.9505      1.99983
     53       5.9698      1.99952
     54       6.0793      1.94813
     55       6.2228      0.93197
     56       6.2646      0.49842
     57       6.2672      0.47554
     58       6.3604      0.04221
     59       6.4082      0.00677
     60       6.4955      0.00008
     61       6.5144      0.00003
     62       6.7876      0.00000
     63       6.8044      0.00000
     64       6.9207      0.00000
     65       7.0021      0.00000
     66       7.0176      0.00000
     67       7.0350      0.00000
     68       7.2588      0.00000


--------------------------------------------------------------------------------------------------------


 soft charge-density along one line, spin component           1
         0         1         2         3         4         5         6         7         8         9
 total charge-density along one line
 
 pseudopotential strength for first ion, spin component:           1
 -1.332   0.000  -0.000  -0.000   0.000  -1.849   0.000  -0.000
  0.000  -1.318  -0.000   0.000   0.000   0.000  -1.838  -0.000
 -0.000  -0.000  -1.288   0.000  -0.010  -0.000  -0.000  -1.808
 -0.000   0.000   0.000  -1.281   0.000  -0.000   0.000   0.000
  0.000   0.000  -0.010   0.000  -1.334   0.000   0.000  -0.010
 -1.849   0.000  -0.000  -0.000   0.000  -2.315   0.000  -0.000
  0.000  -1.838  -0.000   0.000   0.000   0.000  -2.306  -0.000
 -0.000  -0.000  -1.808   0.000  -0.010  -0.000  -0.000  -2.277
 -0.000   0.000   0.000  -1.800   0.000  -0.000   0.000   0.000
  0.000   0.000  -0.010   0.000  -1.851   0.000   0.000  -0.009
 -0.000   0.000  -0.015  -0.000  -0.001  -0.000   0.000  -0.014
  0.000  -0.000   0.040   0.000  -0.003   0.000  -0.000   0.038
 -0.001   0.000   0.000   0.000   0.000  -0.001   0.000   0.000
  0.000  -0.000   0.000  -0.001  -0.000   0.000  -0.000   0.000
 -0.000   0.000   0.000   0.000  -0.001  -0.000   0.000   0.001
 -0.002  -0.000  -0.000  -0.000  -0.000  -0.001  -0.000  -0.000
 -0.000   0.000  -0.000  -0.002   0.000  -0.000   0.000  -0.000
  0.000  -0.000   0.001  -0.000  -0.001   0.000  -0.000   0.001
 total augmentation occupancy for first ion, spin component:           1
  0.322   0.000   0.000  -0.001   0.000  -0.541   0.000   0.000   0.002   0.000   0.000   0.000   0.019   0.000   0.000   0.000
  0.000   0.351   0.001   0.000   0.000   0.000  -0.575  -0.002   0.000  -0.001   0.000  -0.000   0.000   0.000   0.000   0.000
  0.000   0.001   0.651   0.000   0.125   0.000  -0.002  -1.041   0.000  -0.240  -0.175  -0.003   0.000   0.000  -0.044   0.000
 -0.001   0.000   0.000   0.691   0.000   0.002   0.000   0.000  -1.200   0.000   0.000   0.000  -0.000  -0.034   0.000   0.000
  0.000   0.000   0.125   0.000   0.296   0.000  -0.002  -0.246   0.000  -0.511  -0.014  -0.001   0.000   0.000   0.014   0.000
 -0.541   0.000   0.000   0.002   0.000   1.492   0.000   0.000  -0.004   0.000   0.000   0.000  -0.033   0.000   0.000   0.001
  0.000  -0.575  -0.002   0.000  -0.002   0.000   1.755   0.001   0.000   0.004  -0.002   0.000   0.000   0.000  -0.000   0.000
  0.000  -0.002  -1.041   0.000  -0.246   0.000   0.001   2.417   0.000   0.215   0.386   0.001   0.000   0.000   0.035   0.000
  0.002  -0.000   0.000  -1.200   0.000  -0.004   0.000   0.000   2.275   0.000   0.000   0.000  -0.000   0.091   0.000  -0.000
  0.000  -0.001  -0.240   0.000  -0.511   0.000   0.004   0.215   0.000   1.383  -0.083   0.004   0.000   0.000   0.037   0.000
  0.000   0.000  -0.175   0.000  -0.014   0.000  -0.002   0.386   0.000  -0.083   2.058   0.040   0.000   0.000   0.028   0.000
  0.000  -0.000  -0.003   0.000  -0.001   0.000   0.000   0.001   0.000   0.004   0.040   0.001   0.000   0.000   0.000   0.000
  0.019   0.000   0.000  -0.000   0.000  -0.033   0.000   0.000  -0.000   0.000   0.000   0.000   0.298   0.000   0.000   0.008
  0.000   0.000   0.000  -0.034   0.000   0.000   0.000   0.000   0.091   0.000   0.000   0.000   0.000   0.293   0.000   0.000
  0.000   0.000  -0.044   0.000   0.014   0.000  -0.000   0.035   0.000   0.037   0.028   0.000   0.000   0.000   0.341   0.000
  0.000   0.000   0.000   0.000   0.000   0.001   0.000   0.000  -0.000   0.000   0.000   0.000   0.008   0.000   0.000   0.000
  0.000   0.000   0.000  -0.002   0.000  -0.000   0.000   0.000   0.005   0.000  -0.000   0.000   0.000   0.007   0.000   0.000
  0.000  -0.000  -0.001   0.000  -0.000   0.000   0.000   0.000   0.000   0.003   0.002   0.000   0.000   0.000   0.011   0.000


------------------------ aborting loop because EDIFF is reached ----------------------------------------


    CHARGE:  cpu time    0.0266: real time    0.0266
    FORLOC:  cpu time    0.0030: real time    0.0030
    FORNL :  cpu time    0.6184: real time    0.6188
    STRESS:  cpu time    0.6207: real time    0.6212
    FORCOR:  cpu time    0.0151: real time    0.0151
    FORHAR:  cpu time    0.0053: real time    0.0053
    MIXING:  cpu time    0.0008: real time    0.0008
    OFIELD:  cpu time    0.0000: real time    0.0000

  FORCE on cell =-STRESS in cart. coord.  units (eV):
  Direction    XX          YY          ZZ          XY          YZ          ZX
  --------------------------------------------------------------------------------------
  Alpha Z   539.13641   539.13641   539.13641
  Ewald   -1396.03067 -2077.05231 -1556.92746    -0.00000     0.00000    -0.00000
  Hartree   526.60617   -90.72513   425.32430    -0.00000    -0.00000    -0.00000
  E(xc)    -496.65924  -500.93711  -497.59899    -0.00000     0.00000     0.00000
  Local    -356.30560   933.97538  -111.10656    -0.00000    -0.00000     0.00000
  n-local  -108.54925  -111.39918  -111.23150     0.00000     0.00000    -0.00000
  augment   445.79371   453.16848   452.89586    -0.00000     0.00000    -0.00000
  Kinetic   846.04022   853.86685   859.48557     0.00000    -0.00000     0.00000
  Fock        0.00000     0.00000     0.00000     0.00000     0.00000     0.00000
  -------------------------------------------------------------------------------------
  Total       0.03175     0.03338    -0.02236     0.00000     0.00000     0.00000
  in kB       0.19160     0.20145    -0.13494     0.00000     0.00000     0.00000
  external pressure =        0.09 kB  Pullay stress =        0.00 kB


 VOLUME and BASIS-vectors are now :
 -----------------------------------------------------------------------------
  energy-cutoff  :      267.88
  volume of cell :      265.47
      direct lattice vectors                 reciprocal lattice vectors
     7.004298370  0.000000000  0.000000000     0.142769475  0.000000000  0.000000000
     0.000000000  9.010414408  0.000000000     0.000000000  0.110982687  0.000000000
     0.000000000  0.000000000  4.206370783     0.000000000  0.000000000  0.237734630

  length of vectors
     7.004298370  9.010414408  4.206370783     0.142769475  0.110982687  0.237734630


 FORCES acting on ions
    electron-ion (+dipol)            ewald-force                    non-local-force                 convergence-correction
 -----------------------------------------------------------------------------------------------
   -.355E+01 -.699E-13 -.338E-05   0.490E+01 0.138E-13 -.149E-14   -.140E+01 0.153E-24 0.296E-24   0.441E-01 -.200E-12 0.444E-13
   0.355E+01 0.711E-12 0.338E-05   -.490E+01 0.103E-13 0.334E-14   0.140E+01 -.106E-23 -.363E-24   -.441E-01 -.424E-12 0.443E-12
   0.133E+02 0.957E+02 -.390E-01   -.132E+02 -.946E+02 0.373E-01   -.717E-01 -.113E+01 0.936E-03   -.280E-01 0.133E-01 0.370E-03
   0.133E+02 -.957E+02 0.390E-01   -.132E+02 0.946E+02 -.373E-01   -.717E-01 0.113E+01 -.936E-03   -.280E-01 -.133E-01 -.370E-03
   -.133E+02 0.957E+02 0.390E-01   0.132E+02 -.946E+02 -.373E-01   0.717E-01 -.113E+01 -.936E-03   0.280E-01 0.133E-01 -.370E-03
   -.133E+02 -.957E+02 -.390E-01   0.132E+02 0.946E+02 0.373E-01   0.717E-01 0.113E+01 0.936E-03   0.280E-01 -.133E-01 0.370E-03
   0.421E-13 -.718E+02 -.515E-04   0.000E+00 0.721E+02 0.175E-14   0.983E-24 -.236E+00 -.179E-23   0.201E-12 -.490E-02 0.198E-13
   0.157E-13 0.718E+02 0.515E-04   0.711E-14 -.721E+02 0.741E-15   0.267E-23 0.236E+00 -.256E-23   -.871E-13 0.490E-02 0.121E-12
   0.158E-13 0.141E+03 -.902E-06   0.711E-14 -.143E+03 0.837E-15   -.209E-24 0.188E+01 0.269E-23   0.532E-13 0.197E-01 0.247E-14
   0.346E-14 -.141E+03 0.902E-06   0.213E-13 0.143E+03 -.153E-14   0.211E-23 -.188E+01 0.272E-23   -.230E-12 -.197E-01 -.140E-13
   0.141E-13 -.879E-13 -.163E-13   -.107E-13 -.162E-13 0.139E-14   0.741E-24 -.112E-25 -.749E-25   0.886E-13 -.300E-12 -.121E-12
   -.404E-13 0.794E+02 -.676E-05   0.213E-13 -.794E+02 -.271E-14   -.421E-24 -.461E-01 -.118E-23   -.266E-13 0.303E-01 0.894E-13
   -.190E-13 -.794E+02 0.676E-05   0.142E-13 0.794E+02 -.330E-14   -.108E-23 0.461E-01 0.822E-24   -.171E-12 -.303E-01 0.767E-13
   0.339E+01 -.435E+02 0.674E-01   -.313E+01 0.425E+02 -.744E-01   -.216E+00 0.101E+01 0.400E-02   -.407E-01 -.112E-02 -.308E-02
   0.339E+01 0.435E+02 -.674E-01   -.313E+01 -.425E+02 0.744E-01   -.216E+00 -.101E+01 -.400E-02   -.407E-01 0.112E-02 0.308E-02
   -.339E+01 -.435E+02 -.674E-01   0.313E+01 0.425E+02 0.744E-01   0.216E+00 0.101E+01 -.400E-02   0.407E-01 -.112E-02 0.308E-02
   -.339E+01 0.435E+02 0.674E-01   0.313E+01 -.425E+02 -.744E-01   0.216E+00 -.101E+01 0.400E-02   0.407E-01 0.112E-02 -.308E-02
   0.326E-12 -.191E-13 -.113E-12   0.284E-13 0.249E-13 -.270E-15   -.356E-24 -.532E-26 -.883E-23   0.177E-12 0.641E-12 0.307E-13
   -.167E+02 -.105E-13 0.102E-05   0.161E+02 0.284E-13 0.556E-14   0.558E+00 -.103E-23 -.151E-24   0.624E-01 0.422E-12 0.384E-12
   0.167E+02 0.513E-14 -.102E-05   -.161E+02 0.427E-13 0.673E-15   -.558E+00 -.840E-24 0.159E-24   -.624E-01 0.762E-12 -.207E-11
 -----------------------------------------------------------------------------------------------
   0.158E-06 -.189E-07 0.332E-08   -.391E-13 -.106E-13 0.106E-13   -.111E-15 -.187E-23 -.882E-23   -.105E-12 0.106E-11 -.141E-11
 
 
 POSITION                                       TOTAL-FORCE (eV/Angst)
 -----------------------------------------------------------------------------------
      1.36293      4.50521      2.10319        -0.009221      0.000000      0.000000
      5.64137      4.50521      2.10319         0.009221      0.000000      0.000000
      4.62936      7.74838      4.20623        -0.002181     -0.006952     -0.000374
      4.62936      1.26204      0.00014        -0.002181      0.006952      0.000374
      2.37494      7.74838      0.00014         0.002181     -0.006952      0.000374
      2.37494      1.26204      4.20623         0.002181      0.006952     -0.000374
      3.50215      2.79306      2.10319        -0.000000     -0.004276      0.000000
      3.50215      6.21735      2.10319        -0.000000      0.004276      0.000000
      0.00000      6.97678      2.10319        -0.000000      0.002490      0.000000
      0.00000      2.03364      2.10319        -0.000000     -0.002490      0.000000
      3.50215      4.50521     -0.00000        -0.000000      0.000000      0.000000
      0.00000      7.85736     -0.00000        -0.000000     -0.009258      0.000000
      0.00000      1.15305     -0.00000        -0.000000      0.009258      0.000000
      5.64899      3.31594      0.00183        -0.003648     -0.003475     -0.006037
      5.64899      5.69447     -0.00183        -0.003648      0.003475      0.006037
      1.35531      3.31594     -0.00183         0.003648     -0.003475      0.006037
      1.35531      5.69447      0.00183         0.003648      0.003475     -0.006037
      3.50215     -0.00000      2.10319        -0.000000      0.000000      0.000000
      1.28564     -0.00000      2.10319         0.002878      0.000000      0.000000
      5.71866     -0.00000      2.10319        -0.002878      0.000000      0.000000
 -----------------------------------------------------------------------------------
    total drift:                                0.000000     -0.000000      0.000000


--------------------------------------------------------------------------------------------------------



  FREE ENERGIE OF THE ION-ELECTRON SYSTEM (eV)
  ---------------------------------------------------
  free  energy   TOTEN  =      -169.36026938 eV

  energy  without entropy=     -169.24514402  energy(sigma->0) =     -169.30270670
 
 d Force = 0.5073616E-04[ 0.101E-04, 0.914E-04]  d Energy = 0.5776331E-04-0.703E-05
 d Force =-0.2841362E-01[-0.290E-01,-0.278E-01]  d Ewald  = 0.5693183E+00-0.598E+00


--------------------------------------------------------------------------------------------------------


    POTLOK:  cpu time    0.0206: real time    0.0206


--------------------------------------------------------------------------------------------------------


 Conjugate gradient step on ions:
 trial-energy change:   -0.000058  1 .order   -0.000073   -0.000133   -0.000013
  (g-gl).g = 0.118E-03      g.g   = 0.123E-03  gl.gl    = 0.387E-03
 g(Force)  = 0.733E-04   g(Stress)= 0.495E-04 ortho     =-0.139E-04
 gamma     =   0.30601
 trial     =   1.12276
 opt step  =   1.24138  (harmonic =   1.24138) maximal distance =0.00122425
 next E    =  -169.360285   (d E  =  -0.00007)


--------------------------------------------------------------------------------------------------------


  
 reached required accuracy - stopping structural energy minimisation
     LOOP+:  cpu time    8.7107: real time    8.7175
    4ORBIT:  cpu time    0.0000: real time    0.0000

 total amount of memory used by VASP MPI-rank0    47575. kBytes
=======================================================================

   base      :      30000. kBytes
   nonl-proj :       6811. kBytes
   fftplans  :       1303. kBytes
   grid      :       2718. kBytes
   one-center:        311. kBytes
   wavefun   :       6432. kBytes
 
  
  
 General timing and accounting informations for this job:
 ========================================================
  
                  Total CPU time used (sec):      954.621
                            User time (sec):      946.882
                          System time (sec):        7.740
                         Elapsed time (sec):      956.133
  
                   Maximum memory used (kb):      205204.
                   Average memory used (kb):           0.
  
                          Minor page faults:      1027543
                          Major page faults:            0
                 Voluntary context switches:          601
