<?xml version="1.0" encoding="ISO-8859-1"?>
<modeling>
 <generator>
  <i name="program" type="string">vasp </i>
  <i name="version" type="string">5.4.4.18Apr17-6-g9f103f2a35  </i>
  <i name="subversion" type="string">(build Jul 11 2019 11:52:51) complex            parallel </i>
  <i name="platform" type="string">LinuxIFC </i>
  <i name="date" type="string">2023 11 29 </i>
  <i name="time" type="string">16:55:47 </i>
 </generator>
 <incar>
  <i type="int" name="ISTART">     0</i>
  <i type="string" name="PREC">normal</i>
  <i type="int" name="IBRION">     2</i>
  <i name="EDIFF">      0.00001000</i>
  <i name="EDIFFG">     -0.01000000</i>
  <i type="int" name="NSW">   500</i>
  <i type="int" name="ISIF">     3</i>
  <i name="POTIM">      0.50000000</i>
  <i type="int" name="ISMEAR">     0</i>
  <i name="SIGMA">      0.10000000</i>
  <i name="PSTRESS">      0.00000000</i>
  <i type="logical" name="LWAVE"> F  </i>
  <i type="logical" name="LCHARG"> F  </i>
  <v type="int" name="KPOINT_BSE">    -1     0     0     0</v>
 </incar>
 <structure name="primitive_cell" >
  <crystal>
   <varray name="basis" >
    <v>       7.56711400       0.00000000       0.00000000 </v>
    <v>       0.00000000       7.76884700       0.00000000 </v>
    <v>       0.00000000       0.00000000       4.40690500 </v>
   </varray>
   <i name="volume">    259.07203337 </i>
   <varray name="rec_basis" >
    <v>       0.13215078       0.00000000       0.00000000 </v>
    <v>       0.00000000       0.12871923       0.00000000 </v>
    <v>       0.00000000       0.00000000       0.22691662 </v>
   </varray>
  </crystal>
  <varray name="positions" >
   <v>       0.24505200      -0.50000000      -0.50000000 </v>
   <v>      -0.50000000       0.36243100      -0.50000000 </v>
   <v>      -0.50000000      -0.36243100      -0.50000000 </v>
   <v>       0.13612100       0.37598100       0.03211000 </v>
   <v>       0.13612100      -0.37598100      -0.03211000 </v>
   <v>      -0.50000000      -0.50000000       0.00000000 </v>
   <v>       0.00000000      -0.16640500      -0.50000000 </v>
   <v>       0.00000000       0.16640500      -0.50000000 </v>
   <v>       0.27664800      -0.13269300       0.06305000 </v>
   <v>       0.27664800       0.13269300      -0.06305000 </v>
   <v>      -0.13612100       0.37598100      -0.03211000 </v>
   <v>      -0.13612100      -0.37598100       0.03211000 </v>
   <v>      -0.24505200      -0.50000000      -0.50000000 </v>
   <v>       0.00000000      -0.17013400       0.00000000 </v>
   <v>       0.00000000       0.17013400       0.00000000 </v>
   <v>       0.24303500       0.00000000      -0.50000000 </v>
   <v>      -0.50000000       0.00000000      -0.50000000 </v>
   <v>      -0.27664800      -0.13269300      -0.06305000 </v>
   <v>      -0.27664800       0.13269300       0.06305000 </v>
   <v>      -0.24303500       0.00000000      -0.50000000 </v>
  </varray>
 </structure>
 <varray name="primitive_index" >
  <v type="int" >        1 </v>
  <v type="int" >        7 </v>
  <v type="int" >        8 </v>
  <v type="int" >       16 </v>
  <v type="int" >       17 </v>
  <v type="int" >       11 </v>
  <v type="int" >        9 </v>
  <v type="int" >       10 </v>
  <v type="int" >        5 </v>
  <v type="int" >        6 </v>
  <v type="int" >       14 </v>
  <v type="int" >       15 </v>
  <v type="int" >        2 </v>
  <v type="int" >       12 </v>
  <v type="int" >       13 </v>
  <v type="int" >       19 </v>
  <v type="int" >       18 </v>
  <v type="int" >        3 </v>
  <v type="int" >        4 </v>
  <v type="int" >       20 </v>
 </varray>
 <kpoints>
  <generation param="Gamma">
   <v type="int" name="divisions">       2        2        3 </v>
   <v name="usershift">      0.00000000       0.00000000       0.00000000 </v>
   <v name="genvec1">      0.50000000       0.00000000       0.00000000 </v>
   <v name="genvec2">      0.00000000       0.50000000       0.00000000 </v>
   <v name="genvec3">      0.00000000       0.00000000       0.33333333 </v>
   <v name="shift">      0.00000000       0.00000000       0.00000000 </v>
  </generation>
  <varray name="kpointlist" >
   <v>       0.00000000       0.00000000       0.00000000 </v>
   <v>       0.50000000       0.00000000       0.00000000 </v>
   <v>       0.00000000       0.50000000       0.00000000 </v>
   <v>       0.50000000       0.50000000       0.00000000 </v>
   <v>       0.00000000       0.00000000       0.33333333 </v>
   <v>       0.50000000       0.00000000       0.33333333 </v>
   <v>       0.00000000       0.50000000       0.33333333 </v>
   <v>       0.50000000       0.50000000       0.33333333 </v>
  </varray>
  <varray name="weights" >
   <v>       0.08333333 </v>
   <v>       0.08333333 </v>
   <v>       0.08333333 </v>
   <v>       0.08333333 </v>
   <v>       0.16666667 </v>
   <v>       0.16666667 </v>
   <v>       0.16666667 </v>
   <v>       0.16666667 </v>
  </varray>
 </kpoints>
 <parameters>
  <separator name="general" >
   <i type="string" name="SYSTEM">unknown system</i>
   <i type="logical" name="LCOMPAT"> F  </i>
  </separator>
  <separator name="electronic" >
   <i type="string" name="PREC">normal</i>
   <i name="ENMAX">    267.88200000</i>
   <i name="ENAUG">    511.36800000</i>
   <i name="EDIFF">      0.00001000</i>
   <i type="int" name="IALGO">    38</i>
   <i type="int" name="IWAVPR">    11</i>
   <i type="int" name="NBANDS">    68</i>
   <i name="NELECT">    109.00000000</i>
   <i type="int" name="TURBO">     0</i>
   <i type="int" name="IRESTART">     0</i>
   <i type="int" name="NREBOOT">     0</i>
   <i type="int" name="NMIN">     0</i>
   <i name="EREF">      0.00000000</i>
   <separator name="electronic smearing" >
    <i type="int" name="ISMEAR">     0</i>
    <i name="SIGMA">      0.10000000</i>
    <i name="KSPACING">      0.50000000</i>
    <i type="logical" name="KGAMMA"> T  </i>
   </separator>
   <separator name="electronic projectors" >
    <i type="logical" name="LREAL"> F  </i>
    <v name="ROPT">      0.00000000      0.00000000</v>
    <i type="int" name="LMAXPAW">  -100</i>
    <i type="int" name="LMAXMIX">     2</i>
    <i type="logical" name="NLSPLINE"> F  </i>
   </separator>
   <separator name="electronic startup" >
    <i type="int" name="ISTART">     0</i>
    <i type="int" name="ICHARG">     2</i>
    <i type="int" name="INIWAV">     1</i>
   </separator>
   <separator name="electronic spin" >
    <i type="int" name="ISPIN">     1</i>
    <i type="logical" name="LNONCOLLINEAR"> F  </i>
    <v name="MAGMOM">      1.00000000      1.00000000      1.00000000      1.00000000      1.00000000      1.00000000      1.00000000      1.00000000      1.00000000      1.00000000      1.00000000      1.00000000      1.00000000      1.00000000      1.00000000      1.00000000      1.00000000      1.00000000      1.00000000      1.00000000
</v>
    <i name="NUPDOWN">     -1.00000000</i>
    <i type="logical" name="LSORBIT"> F  </i>
    <v name="SAXIS">      0.00000000      0.00000000      1.00000000</v>
    <i type="logical" name="LSPIRAL"> F  </i>
    <v name="QSPIRAL">      0.00000000      0.00000000      0.00000000</v>
    <i type="logical" name="LZEROZ"> F  </i>
   </separator>
   <separator name="electronic exchange-correlation" >
    <i type="logical" name="LASPH"> F  </i>
    <i type="logical" name="LMETAGGA"> F  </i>
   </separator>
   <separator name="electronic convergence" >
    <i type="int" name="NELM">    60</i>
    <i type="int" name="NELMDL">    -5</i>
    <i type="int" name="NELMIN">     2</i>
    <i name="ENINI">    267.88200000</i>
    <separator name="electronic convergence detail" >
     <i type="logical" name="LDIAG"> T  </i>
     <i type="logical" name="LSUBROT"> F  </i>
     <i name="WEIMIN">      0.00100000</i>
     <i name="EBREAK">      0.00000004</i>
     <i name="DEPER">      0.30000000</i>
     <i type="int" name="NRMM">     4</i>
     <i name="TIME">      0.40000000</i>
    </separator>
   </separator>
   <separator name="electronic mixer" >
    <i name="AMIX">      0.40000000</i>
    <i name="BMIX">      1.00000000</i>
    <i name="AMIN">      0.10000000</i>
    <i name="AMIX_MAG">      1.60000000</i>
    <i name="BMIX_MAG">      1.00000000</i>
    <separator name="electronic mixer details" >
     <i type="int" name="IMIX">     4</i>
     <i type="logical" name="MIXFIRST"> F  </i>
     <i type="int" name="MAXMIX">   -45</i>
     <i name="WC">    100.00000000</i>
     <i type="int" name="INIMIX">     1</i>
     <i type="int" name="MIXPRE">     1</i>
     <i type="int" name="MREMOVE">     5</i>
    </separator>
   </separator>
   <separator name="electronic dipolcorrection" >
    <i type="logical" name="LDIPOL"> F  </i>
    <i type="logical" name="LMONO"> F  </i>
    <i type="int" name="IDIPOL">     0</i>
    <i name="EPSILON">      1.00000000</i>
    <v name="DIPOL">   -100.00000000   -100.00000000   -100.00000000</v>
    <i name="EFIELD">      0.00000000</i>
   </separator>
  </separator>
  <separator name="grids" >
   <i type="int" name="NGX">    30</i>
   <i type="int" name="NGY">    32</i>
   <i type="int" name="NGZ">    18</i>
   <i type="int" name="NGXF">    60</i>
   <i type="int" name="NGYF">    64</i>
   <i type="int" name="NGZF">    36</i>
   <i type="logical" name="ADDGRID"> F  </i>
  </separator>
  <separator name="ionic" >
   <i type="int" name="NSW">   500</i>
   <i type="int" name="IBRION">     2</i>
   <i type="int" name="MDALGO">     0</i>
   <i type="int" name="ISIF">     3</i>
   <i name="PSTRESS">      0.00000000</i>
   <i name="EDIFFG">     -0.01000000</i>
   <i type="int" name="NFREE">     1</i>
   <i name="POTIM">      0.50000000</i>
   <i name="SMASS">     -3.00000000</i>
   <i name="SCALEE">      1.00000000</i>
  </separator>
  <separator name="ionic md" >
   <i name="TEBEG">      0.00010000</i>
   <i name="TEEND">      0.00010000</i>
   <i type="int" name="NBLOCK">     1</i>
   <i type="int" name="KBLOCK">   500</i>
   <i type="int" name="NPACO">   256</i>
   <i name="APACO">     16.00000000</i>
  </separator>
  <separator name="symmetry" >
   <i type="int" name="ISYM">     2</i>
   <i name="SYMPREC">      0.00001000</i>
  </separator>
  <separator name="dos" >
   <i type="int" name="LORBIT">     0</i>
   <v name="RWIGS">     -1.00000000     -1.00000000</v>
   <i type="int" name="NEDOS">   301</i>
   <i name="EMIN">     10.00000000</i>
   <i name="EMAX">    -10.00000000</i>
   <i name="EFERMI">      0.00000000</i>
  </separator>
  <separator name="writing" >
   <i type="int" name="NWRITE">     2</i>
   <i type="logical" name="LWAVE"> F  </i>
   <i type="logical" name="LDOWNSAMPLE"> F  </i>
   <i type="logical" name="LCHARG"> F  </i>
   <i type="logical" name="LPARD"> F  </i>
   <i type="logical" name="LVTOT"> F  </i>
   <i type="logical" name="LVHAR"> F  </i>
   <i type="logical" name="LELF"> F  </i>
   <i type="logical" name="LOPTICS"> F  </i>
   <v name="STM">      0.00000000      0.00000000      0.00000000      0.00000000      0.00000000      0.00000000      0.00000000</v>
  </separator>
  <separator name="performance" >
   <i type="int" name="NPAR">     4</i>
   <i type="int" name="NSIM">     4</i>
   <i type="int" name="NBLK">    -1</i>
   <i type="logical" name="LPLANE"> T  </i>
   <i type="logical" name="LSCALAPACK"> T  </i>
   <i type="logical" name="LSCAAWARE"> F  </i>
   <i type="logical" name="LSCALU"> F  </i>
   <i type="logical" name="LASYNC"> F  </i>
   <i type="logical" name="LORBITALREAL"> F  </i>
  </separator>
  <separator name="miscellaneous" >
   <i type="int" name="IDIOT">     3</i>
   <i type="int" name="ISPECIAL">     0</i>
   <i type="logical" name="LMUSIC"> F  </i>
   <v name="POMASS">     50.94100000     55.84700000</v>
   <v name="DARWINR">      0.00000000      0.00000000</v>
   <v name="DARWINV">      1.00000000      1.00000000</v>
   <i type="logical" name="LCORR"> T  </i>
  </separator>
  <i type="logical" name="GGA_COMPAT"> T  </i>
  <i type="logical" name="LBERRY"> F  </i>
  <i type="int" name="ICORELEVEL">     0</i>
  <i type="logical" name="LDAU"> F  </i>
  <i type="int" name="I_CONSTRAINED_M">     0</i>
  <separator name="electronic exchange-correlation" >
   <i type="string" name="GGA">--</i>
   <i type="int" name="VOSKOWN">     0</i>
   <i type="logical" name="LHFCALC"> F  </i>
   <i type="string" name="PRECFOCK"></i>
   <i type="logical" name="LSYMGRAD"> F  </i>
   <i type="logical" name="LHFONE"> F  </i>
   <i type="logical" name="LRHFCALC"> F  </i>
   <i type="logical" name="LTHOMAS"> F  </i>
   <i type="logical" name="LMODELHF"> F  </i>
   <i name="ENCUT4O">     -1.00000000</i>
   <i type="int" name="EXXOEP">     0</i>
   <i type="int" name="FOURORBIT">     0</i>
   <i name="AEXX">      0.00000000</i>
   <i name="HFALPHA">      0.00000000</i>
   <i name="MCALPHA">      0.00000000</i>
   <i name="ALDAX">      1.00000000</i>
   <i name="AGGAX">      1.00000000</i>
   <i name="ALDAC">      1.00000000</i>
   <i name="AGGAC">      1.00000000</i>
   <i type="int" name="NKREDX">     1</i>
   <i type="int" name="NKREDY">     1</i>
   <i type="int" name="NKREDZ">     1</i>
   <i type="logical" name="SHIFTRED"> F  </i>
   <i type="logical" name="ODDONLY"> F  </i>
   <i type="logical" name="EVENONLY"> F  </i>
   <i type="int" name="LMAXFOCK">     0</i>
   <i type="int" name="NMAXFOCKAE">     0</i>
   <i type="logical" name="LFOCKAEDFT"> F  </i>
   <i name="HFSCREEN">      0.00000000</i>
   <i name="HFSCREENC">      0.00000000</i>
   <i type="int" name="NBANDSGWLOW">     0</i>
  </separator>
  <separator name="vdW DFT" >
   <i type="logical" name="LUSE_VDW"> F  </i>
   <i name="Zab_VDW">     -0.84910000</i>
   <i name="PARAM1">      0.12340000</i>
   <i name="PARAM2">      1.00000000</i>
   <i name="PARAM3">      0.00000000</i>
  </separator>
  <separator name="model GW" >
   <i type="int" name="MODEL_GW">     0</i>
   <i name="MODEL_EPS0">      7.77216100</i>
   <i name="MODEL_ALPHA">      1.00000000</i>
  </separator>
  <separator name="linear response parameters" >
   <i type="logical" name="LEPSILON"> F  </i>
   <i type="logical" name="LRPA"> F  </i>
   <i type="logical" name="LNABLA"> F  </i>
   <i type="logical" name="LVEL"> F  </i>
   <i type="int" name="KINTER">     0</i>
   <i name="CSHIFT">      0.10000000</i>
   <i name="OMEGAMAX">     -1.00000000</i>
   <i name="DEG_THRESHOLD">      0.00200000</i>
   <i name="RTIME">     -0.10000000</i>
   <i name="WPLASMAI">      0.00000000</i>
   <v name="DFIELD">      0.00000000      0.00000000      0.00000000</v>
   <v name="WPLASMA">      0.00000000      0.00000000      0.00000000      0.00000000      0.00000000      0.00000000      0.00000000      0.00000000      0.00000000</v>
  </separator>
  <separator name="orbital magnetization" >
   <i type="logical" name="NUCIND"> F  </i>
   <v name="MAGPOS">      0.00000000      0.00000000      0.00000000</v>
   <i type="logical" name="LNICSALL"> T  </i>
   <i type="logical" name="ORBITALMAG"> F  </i>
   <i type="logical" name="LMAGBLOCH"> F  </i>
   <i type="logical" name="LCHIMAG"> F  </i>
   <i type="logical" name="LGAUGE"> T  </i>
   <i type="int" name="MAGATOM">     0</i>
   <v name="MAGDIPOL">      0.00000000      0.00000000      0.00000000</v>
   <v name="AVECCONST">      0.00000000      0.00000000      0.00000000</v>
  </separator>
  <separator name="response functions" >
   <i type="logical" name="LADDER"> F  </i>
   <i type="logical" name="LRPAFORCE"> F  </i>
   <i type="logical" name="LFXC"> F  </i>
   <i type="logical" name="LHARTREE"> T  </i>
   <i type="int" name="IBSE">     0</i>
   <v type="int" name="KPOINT">    -1     0     0     0</v>
   <i type="logical" name="LTCTE"> F  </i>
   <i type="logical" name="LTETE"> F  </i>
   <i type="logical" name="LTRIPLET"> F  </i>
   <i type="logical" name="LFXCEPS"> F  </i>
   <i type="logical" name="LFXHEG"> F  </i>
   <i type="int" name="NATURALO">     2</i>
   <i type="logical" name="L2ORDER"> F  </i>
   <i type="logical" name="LMP2LT"> F  </i>
   <i type="logical" name="LUSEW"> F  </i>
   <i name="ENCUTGW">     -2.00000000</i>
   <i name="ENCUTGWSOFT">     -2.00000000</i>
   <i name="ENCUTLF">     -1.00000000</i>
   <i type="int" name="LMAXMP2">    -1</i>
   <i name="SCISSOR">      0.00000000</i>
   <i type="int" name="NOMEGA">     0</i>
   <i type="int" name="NOMEGAR">     0</i>
   <i type="int" name="NBANDSGW">    -1</i>
   <i type="int" name="NBANDSO">    -1</i>
   <i type="int" name="NBANDSV">    -1</i>
   <i type="int" name="NELM">     1</i>
   <i type="int" name="NELMHF">     1</i>
   <i type="int" name="DIM">     3</i>
   <i type="int" name="ANTIRES">     0</i>
   <i name="OMEGAMAX">    -30.00000000</i>
   <i name="OMEGAMIN">    -30.00000000</i>
   <i name="OMEGATL">   -200.00000000</i>
   <i type="int" name="OMEGAGRID">   140</i>
   <i name="CSHIFT">     -0.10000000</i>
   <i type="logical" name="SELFENERGY"> F  </i>
   <i type="logical" name="LSPECTRAL"> F  </i>
   <i type="logical" name="LSPECTRALGW"> F  </i>
   <i type="logical" name="LSINGLES"> F  </i>
   <i type="logical" name="LFERMIGW"> F  </i>
   <i type="logical" name="ODDONLYGW"> F  </i>
   <i type="logical" name="EVENONLYGW"> F  </i>
   <i type="int" name="NKREDLFX">     1</i>
   <i type="int" name="NKREDLFY">     1</i>
   <i type="int" name="NKREDLFZ">     1</i>
   <i type="int" name="MAXMEM">  2800</i>
   <i type="int" name="TELESCOPE">     0</i>
   <i type="int" name="TAUPAR">     1</i>
   <i type="int" name="OMEGAPAR">    -1</i>
   <i name="LAMBDA">      1.00000000</i>
  </separator>
  <separator name="External order field" >
   <i name="OFIELD_KAPPA">      0.00000000</i>
   <v name="OFIELD_K">      0.00000000      0.00000000      0.00000000</v>
   <i name="OFIELD_Q6_NEAR">      0.00000000</i>
   <i name="OFIELD_Q6_FAR">      0.00000000</i>
   <i name="OFIELD_A">      0.00000000</i>
  </separator>
 </parameters>
 <atominfo>
  <atoms>      20 </atoms>
  <types>       2 </types>
  <array name="atoms" >
   <dimension dim="1">ion</dimension>
   <field type="string">element</field>
   <field type="int">atomtype</field>
   <set>
    <rc><c>V </c><c>   1</c></rc>
    <rc><c>V </c><c>   1</c></rc>
    <rc><c>V </c><c>   1</c></rc>
    <rc><c>V </c><c>   1</c></rc>
    <rc><c>V </c><c>   1</c></rc>
    <rc><c>V </c><c>   1</c></rc>
    <rc><c>V </c><c>   1</c></rc>
    <rc><c>V </c><c>   1</c></rc>
    <rc><c>V </c><c>   1</c></rc>
    <rc><c>V </c><c>   1</c></rc>
    <rc><c>V </c><c>   1</c></rc>
    <rc><c>V </c><c>   1</c></rc>
    <rc><c>V </c><c>   1</c></rc>
    <rc><c>V </c><c>   1</c></rc>
    <rc><c>V </c><c>   1</c></rc>
    <rc><c>V </c><c>   1</c></rc>
    <rc><c>V </c><c>   1</c></rc>
    <rc><c>Fe</c><c>   2</c></rc>
    <rc><c>Fe</c><c>   2</c></rc>
    <rc><c>Fe</c><c>   2</c></rc>
   </set>
  </array>
  <array name="atomtypes" >
   <dimension dim="1">type</dimension>
   <field type="int">atomspertype</field>
   <field type="string">element</field>
   <field>mass</field>
   <field>valence</field>
   <field type="string">pseudopotential</field>
   <set>
    <rc><c>  17</c><c>V </c><c>     50.94100000</c><c>      5.00000000</c><c>  PAW_PBE V 08Apr2002                   </c></rc>
    <rc><c>   3</c><c>Fe</c><c>     55.84700000</c><c>      8.00000000</c><c>  PAW_PBE Fe 06Sep2000                  </c></rc>
   </set>
  </array>
 </atominfo>
 <structure name="initialpos" >
  <crystal>
   <varray name="basis" >
    <v>       7.56711400       0.00000000       0.00000000 </v>
    <v>       0.00000000       7.76884700       0.00000000 </v>
    <v>       0.00000000       0.00000000       4.40690500 </v>
   </varray>
   <i name="volume">    259.07203337 </i>
   <varray name="rec_basis" >
    <v>       0.13215078       0.00000000       0.00000000 </v>
    <v>       0.00000000       0.12871923       0.00000000 </v>
    <v>       0.00000000       0.00000000       0.22691662 </v>
   </varray>
  </crystal>
  <varray name="positions" >
   <v>       0.24505200       0.50000000       0.50000000 </v>
   <v>       0.75494800       0.50000000       0.50000000 </v>
   <v>       0.72335200       0.86730700       0.93695000 </v>
   <v>       0.72335200       0.13269300       0.06305000 </v>
   <v>       0.27664800       0.86730700       0.06305000 </v>
   <v>       0.27664800       0.13269300       0.93695000 </v>
   <v>       0.50000000       0.36243100       0.50000000 </v>
   <v>       0.50000000       0.63756900       0.50000000 </v>
   <v>       0.00000000       0.83359500       0.50000000 </v>
   <v>       0.00000000       0.16640500       0.50000000 </v>
   <v>       0.50000000       0.50000000       0.00000000 </v>
   <v>       0.00000000       0.82986600       0.00000000 </v>
   <v>       0.00000000       0.17013400       0.00000000 </v>
   <v>       0.86387900       0.37598100       0.96789000 </v>
   <v>       0.86387900       0.62401900       0.03211000 </v>
   <v>       0.13612100       0.37598100       0.03211000 </v>
   <v>       0.13612100       0.62401900       0.96789000 </v>
   <v>       0.50000000       0.00000000       0.50000000 </v>
   <v>       0.24303500       0.00000000       0.50000000 </v>
   <v>       0.75696500       0.00000000       0.50000000 </v>
  </varray>
 </structure>
 <calculation>
  <scstep>
   <time name="dav">    1.28    1.28</time>
   <time name="total">    1.33    1.33</time>
   <energy>
    <i name="alphaZ">    552.45267510 </i>
    <i name="ewald">  -4863.96418287 </i>
    <i name="hartreedc">  -1103.26369374 </i>
    <i name="XCdc">   -769.81852539 </i>
    <i name="pawpsdc">   5171.05454107 </i>
    <i name="pawaedc">  -4356.08836938 </i>
    <i name="eentropy">     -0.08110650 </i>
    <i name="bandstr">   1371.49402495 </i>
    <i name="atom">   4687.48422623 </i>
    <i name="e_fr_energy">    689.26958947 </i>
    <i name="e_wo_entrp">    689.35069597 </i>
    <i name="e_0_energy">    689.31014272 </i>
   </energy>
  </scstep>
  <scstep>
   <time name="dav">    1.29    1.29</time>
   <time name="total">    1.29    1.30</time>
   <energy>
    <i name="e_fr_energy">    -31.78161615 </i>
    <i name="e_wo_entrp">    -31.70438054 </i>
    <i name="e_0_energy">    -31.74299835 </i>
   </energy>
  </scstep>
  <scstep>
   <time name="dav">    1.96    1.96</time>
   <time name="total">    1.96    1.96</time>
   <energy>
    <i name="e_fr_energy">   -163.94300230 </i>
    <i name="e_wo_entrp">   -163.85118085 </i>
    <i name="e_0_energy">   -163.89709158 </i>
   </energy>
  </scstep>
  <scstep>
   <time name="dav">    1.77    1.78</time>
   <time name="total">    1.77    1.78</time>
   <energy>
    <i name="e_fr_energy">   -178.39441777 </i>
    <i name="e_wo_entrp">   -178.28939862 </i>
    <i name="e_0_energy">   -178.34190820 </i>
   </energy>
  </scstep>
  <scstep>
   <time name="dav">    1.82    1.82</time>
   <time name="total">    1.87    1.87</time>
   <energy>
    <i name="e_fr_energy">   -179.30178085 </i>
    <i name="e_wo_entrp">   -179.19367930 </i>
    <i name="e_0_energy">   -179.24773007 </i>
   </energy>
  </scstep>
  <scstep>
   <time name="dav">    2.36    2.37</time>
   <time name="total">    2.46    2.46</time>
   <energy>
    <i name="e_fr_energy">   -333.48710585 </i>
    <i name="e_wo_entrp">   -333.43553251 </i>
    <i name="e_0_energy">   -333.46131918 </i>
   </energy>
  </scstep>
  <scstep>
   <time name="dav">    2.01    2.02</time>
   <time name="total">    2.11    2.11</time>
   <energy>
    <i name="e_fr_energy">   -230.81162987 </i>
    <i name="e_wo_entrp">   -230.70239228 </i>
    <i name="e_0_energy">   -230.75701108 </i>
   </energy>
  </scstep>
  <scstep>
   <time name="dav">    2.21    2.22</time>
   <time name="total">    2.31    2.31</time>
   <energy>
    <i name="e_fr_energy">   -155.12021502 </i>
    <i name="e_wo_entrp">   -155.03081671 </i>
    <i name="e_0_energy">   -155.07551586 </i>
   </energy>
  </scstep>
  <scstep>
   <time name="dav">    2.33    2.33</time>
   <time name="total">    2.42    2.42</time>
   <energy>
    <i name="e_fr_energy">   -154.75361507 </i>
    <i name="e_wo_entrp">   -154.64653144 </i>
    <i name="e_0_energy">   -154.70007325 </i>
   </energy>
  </scstep>
  <scstep>
   <time name="dav">    2.31    2.31</time>
   <time name="total">    2.40    2.41</time>
   <energy>
    <i name="e_fr_energy">   -159.24735860 </i>
    <i name="e_wo_entrp">   -159.16043333 </i>
    <i name="e_0_energy">   -159.20389597 </i>
   </energy>
  </scstep>
  <scstep>
   <time name="dav">    2.29    2.29</time>
   <time name="total">    2.39    2.39</time>
   <energy>
    <i name="e_fr_energy">   -150.69424036 </i>
    <i name="e_wo_entrp">   -150.59002976 </i>
    <i name="e_0_energy">   -150.64213506 </i>
   </energy>
  </scstep>
  <scstep>
   <time name="dav">    2.21    2.21</time>
   <time name="total">    2.31    2.31</time>
   <energy>
    <i name="e_fr_energy">   -150.95272046 </i>
    <i name="e_wo_entrp">   -150.85877353 </i>
    <i name="e_0_energy">   -150.90574700 </i>
   </energy>
  </scstep>
  <scstep>
   <time name="dav">    2.21    2.21</time>
   <time name="total">    2.30    2.30</time>
   <energy>
    <i name="e_fr_energy">   -150.90497416 </i>
    <i name="e_wo_entrp">   -150.78164807 </i>
    <i name="e_0_energy">   -150.84331112 </i>
   </energy>
  </scstep>
  <scstep>
   <time name="dav">    2.24    2.24</time>
   <time name="total">    2.34    2.34</time>
   <energy>
    <i name="e_fr_energy">   -150.68736566 </i>
    <i name="e_wo_entrp">   -150.57072394 </i>
    <i name="e_0_energy">   -150.62904480 </i>
   </energy>
  </scstep>
  <scstep>
   <time name="dav">    2.17    2.17</time>
   <time name="total">    2.27    2.27</time>
   <energy>
    <i name="e_fr_energy">   -150.53006825 </i>
    <i name="e_wo_entrp">   -150.41759383 </i>
    <i name="e_0_energy">   -150.47383104 </i>
   </energy>
  </scstep>
  <scstep>
   <time name="dav">    2.03    2.03</time>
   <time name="total">    2.12    2.12</time>
   <energy>
    <i name="e_fr_energy">   -150.44427165 </i>
    <i name="e_wo_entrp">   -150.33382019 </i>
    <i name="e_0_energy">   -150.38904592 </i>
   </energy>
  </scstep>
  <scstep>
   <time name="dav">    2.29    2.30</time>
   <time name="total">    2.39    2.39</time>
   <energy>
    <i name="e_fr_energy">   -150.33294860 </i>
    <i name="e_wo_entrp">   -150.21871009 </i>
    <i name="e_0_energy">   -150.27582935 </i>
   </energy>
  </scstep>
  <scstep>
   <time name="dav">    2.07    2.07</time>
   <time name="total">    2.16    2.17</time>
   <energy>
    <i name="e_fr_energy">   -150.32448337 </i>
    <i name="e_wo_entrp">   -150.20851339 </i>
    <i name="e_0_energy">   -150.26649838 </i>
   </energy>
  </scstep>
  <scstep>
   <time name="dav">    1.94    1.94</time>
   <time name="total">    2.04    2.04</time>
   <energy>
    <i name="e_fr_energy">   -150.32584615 </i>
    <i name="e_wo_entrp">   -150.21070274 </i>
    <i name="e_0_energy">   -150.26827445 </i>
   </energy>
  </scstep>
  <scstep>
   <time name="dav">    2.23    2.24</time>
   <time name="total">    2.33    2.33</time>
   <energy>
    <i name="e_fr_energy">   -150.31048438 </i>
    <i name="e_wo_entrp">   -150.19355295 </i>
    <i name="e_0_energy">   -150.25201866 </i>
   </energy>
  </scstep>
  <scstep>
   <time name="dav">    2.23    2.23</time>
   <time name="total">    2.33    2.33</time>
   <energy>
    <i name="e_fr_energy">   -150.30809084 </i>
    <i name="e_wo_entrp">   -150.19063048 </i>
    <i name="e_0_energy">   -150.24936066 </i>
   </energy>
  </scstep>
  <scstep>
   <time name="dav">    2.13    2.14</time>
   <time name="total">    2.22    2.24</time>
   <energy>
    <i name="e_fr_energy">   -150.30666284 </i>
    <i name="e_wo_entrp">   -150.18946756 </i>
    <i name="e_0_energy">   -150.24806520 </i>
   </energy>
  </scstep>
  <scstep>
   <time name="dav">    2.29    2.29</time>
   <time name="total">    2.38    2.39</time>
   <energy>
    <i name="e_fr_energy">   -150.30386841 </i>
    <i name="e_wo_entrp">   -150.18654443 </i>
    <i name="e_0_energy">   -150.24520642 </i>
   </energy>
  </scstep>
  <scstep>
   <time name="dav">    2.13    2.14</time>
   <time name="total">    2.23    2.23</time>
   <energy>
    <i name="e_fr_energy">   -150.30235390 </i>
    <i name="e_wo_entrp">   -150.18474403 </i>
    <i name="e_0_energy">   -150.24354896 </i>
   </energy>
  </scstep>
  <scstep>
   <time name="dav">    2.17    2.18</time>
   <time name="total">    2.27    2.27</time>
   <energy>
    <i name="e_fr_energy">   -150.30149485 </i>
    <i name="e_wo_entrp">   -150.18353064 </i>
    <i name="e_0_energy">   -150.24251274 </i>
   </energy>
  </scstep>
  <scstep>
   <time name="dav">    2.04    2.04</time>
   <time name="total">    2.13    2.14</time>
   <energy>
    <i name="e_fr_energy">   -150.30137483 </i>
    <i name="e_wo_entrp">   -150.18329022 </i>
    <i name="e_0_energy">   -150.24233252 </i>
   </energy>
  </scstep>
  <scstep>
   <time name="dav">    2.07    2.08</time>
   <time name="total">    2.17    2.18</time>
   <energy>
    <i name="e_fr_energy">   -150.30135626 </i>
    <i name="e_wo_entrp">   -150.18316569 </i>
    <i name="e_0_energy">   -150.24226098 </i>
   </energy>
  </scstep>
  <scstep>
   <time name="dav">    1.33    1.33</time>
   <time name="total">    1.37    1.38</time>
   <energy>
    <i name="alphaZ">    552.45267510 </i>
    <i name="ewald">  -4863.96418287 </i>
    <i name="hartreedc">  -1006.71565279 </i>
    <i name="XCdc">   -767.98482206 </i>
    <i name="pawpsdc">   9407.18046245 </i>
    <i name="pawaedc">  -8613.10752123 </i>
    <i name="eentropy">     -0.11816308 </i>
    <i name="bandstr">    454.47162335 </i>
    <i name="atom">   4687.48422623 </i>
    <i name="e_fr_energy">   -150.30135490 </i>
    <i name="e_wo_entrp">   -150.18319183 </i>
    <i name="e_0_energy">   -150.24227336 </i>
   </energy>
  </scstep>
  <structure>
   <crystal>
    <varray name="basis" >
     <v>       7.56711400       0.00000000       0.00000000 </v>
     <v>       0.00000000       7.76884700       0.00000000 </v>
     <v>       0.00000000       0.00000000       4.40690500 </v>
    </varray>
    <i name="volume">    259.07203337 </i>
    <varray name="rec_basis" >
     <v>       0.13215078       0.00000000       0.00000000 </v>
     <v>       0.00000000       0.12871923       0.00000000 </v>
     <v>       0.00000000       0.00000000       0.22691662 </v>
    </varray>
   </crystal>
   <varray name="positions" >
    <v>       0.24505200       0.50000000       0.50000000 </v>
    <v>       0.75494800       0.50000000       0.50000000 </v>
    <v>       0.72335200       0.86730700       0.93695000 </v>
    <v>       0.72335200       0.13269300       0.06305000 </v>
    <v>       0.27664800       0.86730700       0.06305000 </v>
    <v>       0.27664800       0.13269300       0.93695000 </v>
    <v>       0.50000000       0.36243100       0.50000000 </v>
    <v>       0.50000000       0.63756900       0.50000000 </v>
    <v>       0.00000000       0.83359500       0.50000000 </v>
    <v>       0.00000000       0.16640500       0.50000000 </v>
    <v>       0.50000000       0.50000000       0.00000000 </v>
    <v>       0.00000000       0.82986600       0.00000000 </v>
    <v>       0.00000000       0.17013400       0.00000000 </v>
    <v>       0.86387900       0.37598100       0.96789000 </v>
    <v>       0.86387900       0.62401900       0.03211000 </v>
    <v>       0.13612100       0.37598100       0.03211000 </v>
    <v>       0.13612100       0.62401900       0.96789000 </v>
    <v>       0.50000000       0.00000000       0.50000000 </v>
    <v>       0.24303500       0.00000000       0.50000000 </v>
    <v>       0.75696500       0.00000000       0.50000000 </v>
   </varray>
  </structure>
  <varray name="forces" >
   <v>      -1.04667821      -0.00000000       0.00000000 </v>
   <v>       1.04667821      -0.00000000       0.00000000 </v>
   <v>      -4.21325864      -1.04886545       0.62791952 </v>
   <v>      -4.21325864       1.04886545      -0.62791952 </v>
   <v>       4.21325864      -1.04886545      -0.62791952 </v>
   <v>       4.21325864       1.04886545       0.62791952 </v>
   <v>      -0.00000000      -5.59120097       0.00000000 </v>
   <v>      -0.00000000       5.59120097       0.00000000 </v>
   <v>      -0.00000000      -3.62762715       0.00000000 </v>
   <v>      -0.00000000       3.62762715       0.00000000 </v>
   <v>      -0.00000000      -0.00000000       0.00000000 </v>
   <v>       0.00000000       8.22971774       0.00000000 </v>
   <v>       0.00000000      -8.22971774       0.00000000 </v>
   <v>      -5.84761554       2.49789543      -0.89956583 </v>
   <v>      -5.84761554      -2.49789543       0.89956583 </v>
   <v>       5.84761554       2.49789543       0.89956583 </v>
   <v>       5.84761554      -2.49789543      -0.89956583 </v>
   <v>      -0.00000000      -0.00000000       0.00000000 </v>
   <v>      -2.58490712      -0.00000000       0.00000000 </v>
   <v>       2.58490712      -0.00000000       0.00000000 </v>
  </varray>
  <varray name="stress" >
   <v>     354.42839137       0.00000000       0.00000000 </v>
   <v>       0.00000000     404.16458266       0.00000000 </v>
   <v>       0.00000000       0.00000000     204.77436550 </v>
  </varray>
  <energy>
   <i name="e_fr_energy">   -150.30135490 </i>
   <i name="e_wo_entrp">   -150.24227336 </i>
   <i name="e_0_energy">     -0.11816308 </i>
  </energy>
  <time name="totalsc">   62.31   62.42</time>
 </calculation>
 <calculation>
  <scstep>
   <time name="dav">    1.35    1.35</time>
   <time name="total">    1.44    1.44</time>
   <energy>
    <i name="alphaZ">    388.25305866 </i>
    <i name="ewald">  -4446.87179703 </i>
    <i name="hartreedc">   -843.27540180 </i>
    <i name="XCdc">   -784.70924031 </i>
    <i name="pawpsdc">   9407.15410308 </i>
    <i name="pawaedc">  -8613.08274229 </i>
    <i name="eentropy">     -0.11479428 </i>
    <i name="bandstr">    -10.86014369 </i>
    <i name="atom">   4687.48422623 </i>
    <i name="e_fr_energy">   -216.02273143 </i>
    <i name="e_wo_entrp">   -215.90793715 </i>
    <i name="e_0_energy">   -215.96533429 </i>
   </energy>
  </scstep>
  <scstep>
   <time name="dav">    2.03    2.04</time>
   <time name="total">    2.12    2.12</time>
   <energy>
    <i name="e_fr_energy">   -602.93692932 </i>
    <i name="e_wo_entrp">   -602.83745709 </i>
    <i name="e_0_energy">   -602.88719320 </i>
   </energy>
  </scstep>
  <scstep>
   <time name="dav">    1.39    1.39</time>
   <time name="total">    1.48    1.49</time>
   <energy>
    <i name="e_fr_energy">   -228.59167389 </i>
    <i name="e_wo_entrp">   -228.41100654 </i>
    <i name="e_0_energy">   -228.50134021 </i>
   </energy>
  </scstep>
  <scstep>
   <time name="dav">    2.40    2.41</time>
   <time name="total">    2.49    2.50</time>
   <energy>
    <i name="e_fr_energy">   -192.68342366 </i>
    <i name="e_wo_entrp">   -192.60222120 </i>
    <i name="e_0_energy">   -192.64282243 </i>
   </energy>
  </scstep>
  <scstep>
   <time name="dav">    2.07    2.07</time>
   <time name="total">    2.16    2.17</time>
   <energy>
    <i name="e_fr_energy">   -188.21561227 </i>
    <i name="e_wo_entrp">   -188.07628696 </i>
    <i name="e_0_energy">   -188.14594962 </i>
   </energy>
  </scstep>
  <scstep>
   <time name="dav">    2.37    2.37</time>
   <time name="total">    2.46    2.46</time>
   <energy>
    <i name="e_fr_energy">   -166.46237658 </i>
    <i name="e_wo_entrp">   -166.32327208 </i>
    <i name="e_0_energy">   -166.39282433 </i>
   </energy>
  </scstep>
  <scstep>
   <time name="dav">    2.14    2.14</time>
   <time name="total">    2.23    2.24</time>
   <energy>
    <i name="e_fr_energy">   -164.64591594 </i>
    <i name="e_wo_entrp">   -164.48590770 </i>
    <i name="e_0_energy">   -164.56591182 </i>
   </energy>
  </scstep>
  <scstep>
   <time name="dav">    2.34    2.34</time>
   <time name="total">    2.43    2.43</time>
   <energy>
    <i name="e_fr_energy">   -163.40351581 </i>
    <i name="e_wo_entrp">   -163.22227986 </i>
    <i name="e_0_energy">   -163.31289784 </i>
   </energy>
  </scstep>
  <scstep>
   <time name="dav">    2.32    2.33</time>
   <time name="total">    2.42    2.42</time>
   <energy>
    <i name="e_fr_energy">   -159.24557140 </i>
    <i name="e_wo_entrp">   -159.04240163 </i>
    <i name="e_0_energy">   -159.14398651 </i>
   </energy>
  </scstep>
  <scstep>
   <time name="dav">    2.19    2.20</time>
   <time name="total">    2.29    2.29</time>
   <energy>
    <i name="e_fr_energy">   -158.50445672 </i>
    <i name="e_wo_entrp">   -158.30505283 </i>
    <i name="e_0_energy">   -158.40475478 </i>
   </energy>
  </scstep>
  <scstep>
   <time name="dav">    2.19    2.19</time>
   <time name="total">    2.29    2.29</time>
   <energy>
    <i name="e_fr_energy">   -157.63359734 </i>
    <i name="e_wo_entrp">   -157.42351677 </i>
    <i name="e_0_energy">   -157.52855705 </i>
   </energy>
  </scstep>
  <scstep>
   <time name="dav">    2.10    2.10</time>
   <time name="total">    2.20    2.20</time>
   <energy>
    <i name="e_fr_energy">   -157.70427509 </i>
    <i name="e_wo_entrp">   -157.50220199 </i>
    <i name="e_0_energy">   -157.60323854 </i>
   </energy>
  </scstep>
  <scstep>
   <time name="dav">    2.09    2.10</time>
   <time name="total">    2.18    2.19</time>
   <energy>
    <i name="e_fr_energy">   -158.25510168 </i>
    <i name="e_wo_entrp">   -158.04955008 </i>
    <i name="e_0_energy">   -158.15232588 </i>
   </energy>
  </scstep>
  <scstep>
   <time name="dav">    2.30    2.30</time>
   <time name="total">    2.39    2.40</time>
   <energy>
    <i name="e_fr_energy">   -156.61424939 </i>
    <i name="e_wo_entrp">   -156.43031010 </i>
    <i name="e_0_energy">   -156.52227975 </i>
   </energy>
  </scstep>
  <scstep>
   <time name="dav">    2.17    2.18</time>
   <time name="total">    2.27    2.27</time>
   <energy>
    <i name="e_fr_energy">   -156.75814848 </i>
    <i name="e_wo_entrp">   -156.55754775 </i>
    <i name="e_0_energy">   -156.65784812 </i>
   </energy>
  </scstep>
  <scstep>
   <time name="dav">    2.26    2.26</time>
   <time name="total">    2.36    2.36</time>
   <energy>
    <i name="e_fr_energy">   -154.43693124 </i>
    <i name="e_wo_entrp">   -154.22827021 </i>
    <i name="e_0_energy">   -154.33260072 </i>
   </energy>
  </scstep>
  <scstep>
   <time name="dav">    2.27    2.27</time>
   <time name="total">    2.37    2.37</time>
   <energy>
    <i name="e_fr_energy">   -154.69057644 </i>
    <i name="e_wo_entrp">   -154.48380828 </i>
    <i name="e_0_energy">   -154.58719236 </i>
   </energy>
  </scstep>
  <scstep>
   <time name="dav">    2.09    2.09</time>
   <time name="total">    2.19    2.19</time>
   <energy>
    <i name="e_fr_energy">   -154.53254408 </i>
    <i name="e_wo_entrp">   -154.32094920 </i>
    <i name="e_0_energy">   -154.42674664 </i>
   </energy>
  </scstep>
  <scstep>
   <time name="dav">    2.25    2.25</time>
   <time name="total">    2.34    2.35</time>
   <energy>
    <i name="e_fr_energy">   -154.39552625 </i>
    <i name="e_wo_entrp">   -154.17924264 </i>
    <i name="e_0_energy">   -154.28738444 </i>
   </energy>
  </scstep>
  <scstep>
   <time name="dav">    2.18    2.18</time>
   <time name="total">    2.28    2.28</time>
   <energy>
    <i name="e_fr_energy">   -154.23917148 </i>
    <i name="e_wo_entrp">   -154.01290785 </i>
    <i name="e_0_energy">   -154.12603967 </i>
   </energy>
  </scstep>
  <scstep>
   <time name="dav">    2.13    2.14</time>
   <time name="total">    2.23    2.23</time>
   <energy>
    <i name="e_fr_energy">   -154.22193460 </i>
    <i name="e_wo_entrp">   -153.99509606 </i>
    <i name="e_0_energy">   -154.10851533 </i>
   </energy>
  </scstep>
  <scstep>
   <time name="dav">    2.26    2.26</time>
   <time name="total">    2.35    2.36</time>
   <energy>
    <i name="e_fr_energy">   -154.20822013 </i>
    <i name="e_wo_entrp">   -153.97975672 </i>
    <i name="e_0_energy">   -154.09398842 </i>
   </energy>
  </scstep>
  <scstep>
   <time name="dav">    2.31    2.31</time>
   <time name="total">    2.41    2.41</time>
   <energy>
    <i name="e_fr_energy">   -154.19823969 </i>
    <i name="e_wo_entrp">   -153.96819203 </i>
    <i name="e_0_energy">   -154.08321586 </i>
   </energy>
  </scstep>
  <scstep>
   <time name="dav">    2.09    2.09</time>
   <time name="total">    2.19    2.19</time>
   <energy>
    <i name="e_fr_energy">   -154.19502035 </i>
    <i name="e_wo_entrp">   -153.96559151 </i>
    <i name="e_0_energy">   -154.08030593 </i>
   </energy>
  </scstep>
  <scstep>
   <time name="dav">    2.17    2.17</time>
   <time name="total">    2.27    2.27</time>
   <energy>
    <i name="e_fr_energy">   -154.19249496 </i>
    <i name="e_wo_entrp">   -153.96203805 </i>
    <i name="e_0_energy">   -154.07726650 </i>
   </energy>
  </scstep>
  <scstep>
   <time name="dav">    2.17    2.18</time>
   <time name="total">    2.27    2.27</time>
   <energy>
    <i name="e_fr_energy">   -154.19165695 </i>
    <i name="e_wo_entrp">   -153.96072207 </i>
    <i name="e_0_energy">   -154.07618951 </i>
   </energy>
  </scstep>
  <scstep>
   <time name="dav">    2.13    2.13</time>
   <time name="total">    2.22    2.22</time>
   <energy>
    <i name="e_fr_energy">   -154.19123304 </i>
    <i name="e_wo_entrp">   -153.96002974 </i>
    <i name="e_0_energy">   -154.07563139 </i>
   </energy>
  </scstep>
  <scstep>
   <time name="dav">    2.29    2.29</time>
   <time name="total">    2.39    2.39</time>
   <energy>
    <i name="e_fr_energy">   -154.19125858 </i>
    <i name="e_wo_entrp">   -153.95967552 </i>
    <i name="e_0_energy">   -154.07546705 </i>
   </energy>
  </scstep>
  <scstep>
   <time name="dav">    2.03    2.03</time>
   <time name="total">    2.13    2.13</time>
   <energy>
    <i name="e_fr_energy">   -154.19117624 </i>
    <i name="e_wo_entrp">   -153.95961887 </i>
    <i name="e_0_energy">   -154.07539756 </i>
   </energy>
  </scstep>
  <scstep>
   <time name="dav">    1.86    1.86</time>
   <time name="total">    1.95    1.96</time>
   <energy>
    <i name="e_fr_energy">   -154.19116038 </i>
    <i name="e_wo_entrp">   -153.95953182 </i>
    <i name="e_0_energy">   -154.07534610 </i>
   </energy>
  </scstep>
  <scstep>
   <time name="dav">    1.19    1.19</time>
   <time name="total">    1.23    1.23</time>
   <energy>
    <i name="alphaZ">    388.25305866 </i>
    <i name="ewald">  -4446.87179703 </i>
    <i name="hartreedc">  -1035.77858726 </i>
    <i name="XCdc">   -782.41008109 </i>
    <i name="pawpsdc">   6263.11511854 </i>
    <i name="pawaedc">  -5445.93317740 </i>
    <i name="eentropy">     -0.23159515 </i>
    <i name="bandstr">    218.18167553 </i>
    <i name="atom">   4687.48422623 </i>
    <i name="e_fr_energy">   -154.19115897 </i>
    <i name="e_wo_entrp">   -153.95956382 </i>
    <i name="e_0_energy">   -154.07536139 </i>
   </energy>
  </scstep>
  <structure>
   <crystal>
    <varray name="basis" >
     <v>       8.61320612       0.00000000       0.00000000 </v>
     <v>       0.00000000       8.99353643       0.00000000 </v>
     <v>       0.00000000       0.00000000       4.75888698 </v>
    </varray>
    <i name="volume">    368.63853274 </i>
    <varray name="rec_basis" >
     <v>       0.11610079       0.00000000       0.00000000 </v>
     <v>       0.00000000       0.11119097       0.00000000 </v>
     <v>       0.00000000       0.00000000       0.21013317 </v>
    </varray>
   </crystal>
   <varray name="positions" >
    <v>       0.23837911       0.50000000       0.50000000 </v>
    <v>       0.76162089       0.50000000       0.50000000 </v>
    <v>       0.69649119       0.86079380       0.94382387 </v>
    <v>       0.69649119       0.13920620       0.05617613 </v>
    <v>       0.30350881       0.86079380       0.05617613 </v>
    <v>       0.30350881       0.13920620       0.94382387 </v>
    <v>       0.50000000       0.32771100       0.50000000 </v>
    <v>       0.50000000       0.67228900       0.50000000 </v>
    <v>      -0.00000000       0.81106832       0.50000000 </v>
    <v>      -0.00000000       0.18893168       0.50000000 </v>
    <v>       0.50000000       0.50000000       0.00000000 </v>
    <v>       0.00000000       0.88097055       0.00000000 </v>
    <v>       0.00000000       0.11902945       0.00000000 </v>
    <v>       0.82659867       0.39149232       0.95804240 </v>
    <v>       0.82659867       0.60850768       0.04195760 </v>
    <v>       0.17340133       0.39149232       0.04195760 </v>
    <v>       0.17340133       0.60850768       0.95804240 </v>
    <v>       0.50000000      -0.00000000       0.50000000 </v>
    <v>       0.22655543      -0.00000000       0.50000000 </v>
    <v>       0.77344457      -0.00000000       0.50000000 </v>
   </varray>
  </structure>
  <varray name="forces" >
   <v>       0.77087135       0.00000000      -0.00000000 </v>
   <v>      -0.77087135       0.00000000       0.00000000 </v>
   <v>      -0.26390445       0.64953919      -0.16517361 </v>
   <v>      -0.26390445      -0.64953919       0.16517361 </v>
   <v>       0.26390445       0.64953919       0.16517361 </v>
   <v>       0.26390445      -0.64953919      -0.16517361 </v>
   <v>       0.00000000       0.77259037      -0.00000000 </v>
   <v>       0.00000000      -0.77259037      -0.00000000 </v>
   <v>       0.00000000       0.32609360      -0.00000000 </v>
   <v>       0.00000000      -0.32609360      -0.00000000 </v>
   <v>       0.00000000       0.00000000      -0.00000000 </v>
   <v>       0.00000000      -2.14621057      -0.00000000 </v>
   <v>       0.00000000       2.14621057      -0.00000000 </v>
   <v>      -0.07764916      -0.82383375       0.63614470 </v>
   <v>      -0.07764916       0.82383375      -0.63614470 </v>
   <v>       0.07764916      -0.82383375      -0.63614470 </v>
   <v>       0.07764916       0.82383375       0.63614470 </v>
   <v>       0.00000000       0.00000000      -0.00000000 </v>
   <v>      -0.46990698       0.00000000      -0.00000000 </v>
   <v>       0.46990698       0.00000000       0.00000000 </v>
  </varray>
  <varray name="stress" >
   <v>    -330.16728693       0.00000000       0.00000000 </v>
   <v>       0.00000000    -268.33966757       0.00000000 </v>
   <v>       0.00000000       0.00000000    -268.35755597 </v>
  </varray>
  <energy>
   <i name="e_fr_energy">   -154.19115897 </i>
   <i name="e_wo_entrp">   -154.07536139 </i>
   <i name="e_0_energy">     -0.23159515 </i>
  </energy>
  <time name="totalsc">   70.54   70.63</time>
 </calculation>
 <calculation>
  <scstep>
   <time name="dav">    1.37    1.37</time>
   <time name="total">    1.46    1.47</time>
   <energy>
    <i name="alphaZ">    456.65548059 </i>
    <i name="ewald">  -4670.67137028 </i>
    <i name="hartreedc">  -1112.36191466 </i>
    <i name="XCdc">   -772.18911676 </i>
    <i name="pawpsdc">   6263.14973980 </i>
    <i name="pawaedc">  -5445.97006357 </i>
    <i name="eentropy">     -0.11488892 </i>
    <i name="bandstr">    413.51304256 </i>
    <i name="atom">   4687.48422623 </i>
    <i name="e_fr_energy">   -180.50486502 </i>
    <i name="e_wo_entrp">   -180.38997610 </i>
    <i name="e_0_energy">   -180.44742056 </i>
   </energy>
  </scstep>
  <scstep>
   <time name="dav">    2.17    2.17</time>
   <time name="total">    2.26    2.26</time>
   <energy>
    <i name="e_fr_energy">   -326.57125689 </i>
    <i name="e_wo_entrp">   -326.47170125 </i>
    <i name="e_0_energy">   -326.52147907 </i>
   </energy>
  </scstep>
  <scstep>
   <time name="dav">    2.01    2.01</time>
   <time name="total">    2.10    2.10</time>
   <energy>
    <i name="e_fr_energy">   -252.26231494 </i>
    <i name="e_wo_entrp">   -252.15484613 </i>
    <i name="e_0_energy">   -252.20858054 </i>
   </energy>
  </scstep>
  <scstep>
   <time name="dav">    1.99    1.99</time>
   <time name="total">    2.08    2.09</time>
   <energy>
    <i name="e_fr_energy">   -163.20586553 </i>
    <i name="e_wo_entrp">   -163.03585244 </i>
    <i name="e_0_energy">   -163.12085898 </i>
   </energy>
  </scstep>
  <scstep>
   <time name="dav">    2.14    2.15</time>
   <time name="total">    2.24    2.24</time>
   <energy>
    <i name="e_fr_energy">   -162.21788144 </i>
    <i name="e_wo_entrp">   -162.08455172 </i>
    <i name="e_0_energy">   -162.15121658 </i>
   </energy>
  </scstep>
  <scstep>
   <time name="dav">    2.25    2.25</time>
   <time name="total">    2.34    2.34</time>
   <energy>
    <i name="e_fr_energy">   -164.37561148 </i>
    <i name="e_wo_entrp">   -164.26650003 </i>
    <i name="e_0_energy">   -164.32105575 </i>
   </energy>
  </scstep>
  <scstep>
   <time name="dav">    2.29    2.29</time>
   <time name="total">    2.38    2.38</time>
   <energy>
    <i name="e_fr_energy">   -162.69778390 </i>
    <i name="e_wo_entrp">   -162.56733221 </i>
    <i name="e_0_energy">   -162.63255806 </i>
   </energy>
  </scstep>
  <scstep>
   <time name="dav">    2.19    2.19</time>
   <time name="total">    2.28    2.29</time>
   <energy>
    <i name="e_fr_energy">   -161.76769971 </i>
    <i name="e_wo_entrp">   -161.61135983 </i>
    <i name="e_0_energy">   -161.68952977 </i>
   </energy>
  </scstep>
  <scstep>
   <time name="dav">    2.33    2.34</time>
   <time name="total">    2.43    2.43</time>
   <energy>
    <i name="e_fr_energy">   -163.21572247 </i>
    <i name="e_wo_entrp">   -163.05783133 </i>
    <i name="e_0_energy">   -163.13677690 </i>
   </energy>
  </scstep>
  <scstep>
   <time name="dav">    2.34    2.34</time>
   <time name="total">    2.43    2.43</time>
   <energy>
    <i name="e_fr_energy">   -162.13812959 </i>
    <i name="e_wo_entrp">   -161.96050246 </i>
    <i name="e_0_energy">   -162.04931603 </i>
   </energy>
  </scstep>
  <scstep>
   <time name="dav">    2.29    2.29</time>
   <time name="total">    2.39    2.39</time>
   <energy>
    <i name="e_fr_energy">   -161.46317017 </i>
    <i name="e_wo_entrp">   -161.30462119 </i>
    <i name="e_0_energy">   -161.38389568 </i>
   </energy>
  </scstep>
  <scstep>
   <time name="dav">    2.29    2.29</time>
   <time name="total">    2.38    2.39</time>
   <energy>
    <i name="e_fr_energy">   -161.51169093 </i>
    <i name="e_wo_entrp">   -161.34543786 </i>
    <i name="e_0_energy">   -161.42856440 </i>
   </energy>
  </scstep>
  <scstep>
   <time name="dav">    2.34    2.34</time>
   <time name="total">    2.43    2.44</time>
   <energy>
    <i name="e_fr_energy">   -161.55164844 </i>
    <i name="e_wo_entrp">   -161.37826210 </i>
    <i name="e_0_energy">   -161.46495527 </i>
   </energy>
  </scstep>
  <scstep>
   <time name="dav">    2.34    2.34</time>
   <time name="total">    2.43    2.43</time>
   <energy>
    <i name="e_fr_energy">   -161.47384743 </i>
    <i name="e_wo_entrp">   -161.30655530 </i>
    <i name="e_0_energy">   -161.39020136 </i>
   </energy>
  </scstep>
  <scstep>
   <time name="dav">    2.36    2.36</time>
   <time name="total">    2.45    2.46</time>
   <energy>
    <i name="e_fr_energy">   -161.45652558 </i>
    <i name="e_wo_entrp">   -161.29251252 </i>
    <i name="e_0_energy">   -161.37451905 </i>
   </energy>
  </scstep>
  <scstep>
   <time name="dav">    1.82    1.82</time>
   <time name="total">    1.91    1.91</time>
   <energy>
    <i name="e_fr_energy">   -161.45877636 </i>
    <i name="e_wo_entrp">   -161.29412170 </i>
    <i name="e_0_energy">   -161.37644903 </i>
   </energy>
  </scstep>
  <scstep>
   <time name="dav">    2.13    2.13</time>
   <time name="total">    2.22    2.22</time>
   <energy>
    <i name="e_fr_energy">   -161.45890598 </i>
    <i name="e_wo_entrp">   -161.29516744 </i>
    <i name="e_0_energy">   -161.37703671 </i>
   </energy>
  </scstep>
  <scstep>
   <time name="dav">    2.07    2.07</time>
   <time name="total">    2.16    2.17</time>
   <energy>
    <i name="e_fr_energy">   -161.45571007 </i>
    <i name="e_wo_entrp">   -161.29193416 </i>
    <i name="e_0_energy">   -161.37382212 </i>
   </energy>
  </scstep>
  <scstep>
   <time name="dav">    2.34    2.34</time>
   <time name="total">    2.44    2.44</time>
   <energy>
    <i name="e_fr_energy">   -161.45361751 </i>
    <i name="e_wo_entrp">   -161.28993601 </i>
    <i name="e_0_energy">   -161.37177676 </i>
   </energy>
  </scstep>
  <scstep>
   <time name="dav">    2.23    2.24</time>
   <time name="total">    2.33    2.33</time>
   <energy>
    <i name="e_fr_energy">   -161.45292610 </i>
    <i name="e_wo_entrp">   -161.28876902 </i>
    <i name="e_0_energy">   -161.37084756 </i>
   </energy>
  </scstep>
  <scstep>
   <time name="dav">    2.09    2.09</time>
   <time name="total">    2.19    2.19</time>
   <energy>
    <i name="e_fr_energy">   -161.45278726 </i>
    <i name="e_wo_entrp">   -161.28877167 </i>
    <i name="e_0_energy">   -161.37077947 </i>
   </energy>
  </scstep>
  <scstep>
   <time name="dav">    1.66    1.66</time>
   <time name="total">    1.75    1.76</time>
   <energy>
    <i name="e_fr_energy">   -161.45272180 </i>
    <i name="e_wo_entrp">   -161.28875457 </i>
    <i name="e_0_energy">   -161.37073818 </i>
   </energy>
  </scstep>
  <scstep>
   <time name="dav">    2.32    2.32</time>
   <time name="total">    2.41    2.42</time>
   <energy>
    <i name="e_fr_energy">   -161.45262541 </i>
    <i name="e_wo_entrp">   -161.28866052 </i>
    <i name="e_0_energy">   -161.37064297 </i>
   </energy>
  </scstep>
  <scstep>
   <time name="dav">    1.32    1.32</time>
   <time name="total">    1.37    1.37</time>
   <energy>
    <i name="alphaZ">    456.65548059 </i>
    <i name="ewald">  -4670.67137028 </i>
    <i name="hartreedc">   -987.95413463 </i>
    <i name="XCdc">   -775.50502843 </i>
    <i name="pawpsdc">   7199.57781321 </i>
    <i name="pawaedc">  -6391.76594829 </i>
    <i name="eentropy">     -0.16392237 </i>
    <i name="bandstr">    320.89026333 </i>
    <i name="atom">   4687.48422623 </i>
    <i name="e_fr_energy">   -161.45262064 </i>
    <i name="e_wo_entrp">   -161.28869827 </i>
    <i name="e_0_energy">   -161.37065945 </i>
   </energy>
  </scstep>
  <structure>
   <crystal>
    <varray name="basis" >
     <v>       8.11566553       0.00000000       0.00000000 </v>
     <v>       0.00000000       8.41105169       0.00000000 </v>
     <v>       0.00000000       0.00000000       4.59147790 </v>
    </varray>
    <i name="volume">    313.42016895 </i>
    <varray name="rec_basis" >
     <v>       0.12321848       0.00000000       0.00000000 </v>
     <v>       0.00000000       0.11889120       0.00000000 </v>
     <v>       0.00000000       0.00000000       0.21779480 </v>
    </varray>
   </crystal>
   <varray name="positions" >
    <v>       0.24116740       0.50000000       0.50000000 </v>
    <v>       0.75883260       0.50000000       0.50000000 </v>
    <v>       0.70771508       0.86346976       0.94079634 </v>
    <v>       0.70771508       0.13653024       0.05920366 </v>
    <v>       0.29228492       0.86346976       0.05920366 </v>
    <v>       0.29228492       0.13653024       0.94079634 </v>
    <v>       0.50000000       0.34197576       0.50000000 </v>
    <v>       0.50000000       0.65802424       0.50000000 </v>
    <v>      -0.00000000       0.82032343       0.50000000 </v>
    <v>      -0.00000000       0.17967657       0.50000000 </v>
    <v>       0.50000000       0.50000000       0.00000000 </v>
    <v>       0.00000000       0.85997418       0.00000000 </v>
    <v>       0.00000000       0.14002582       0.00000000 </v>
    <v>       0.84217639       0.38511948       0.96237968 </v>
    <v>       0.84217639       0.61488052       0.03762032 </v>
    <v>       0.15782361       0.38511948       0.03762032 </v>
    <v>       0.15782361       0.61488052       0.96237968 </v>
    <v>       0.50000000      -0.00000000       0.50000000 </v>
    <v>       0.23344148      -0.00000000       0.50000000 </v>
    <v>       0.76655852      -0.00000000       0.50000000 </v>
   </varray>
  </structure>
  <varray name="forces" >
   <v>       0.09053802      -0.00000000      -0.00000000 </v>
   <v>      -0.09053802      -0.00000000       0.00000000 </v>
   <v>      -1.52116067      -0.11357523       0.17631014 </v>
   <v>      -1.52116067       0.11357523      -0.17631014 </v>
   <v>       1.52116067      -0.11357523      -0.17631014 </v>
   <v>       1.52116067       0.11357523       0.17631014 </v>
   <v>       0.00000000      -0.44599724       0.00000000 </v>
   <v>       0.00000000       0.44599724      -0.00000000 </v>
   <v>       0.00000000      -1.22119161      -0.00000000 </v>
   <v>       0.00000000       1.22119161       0.00000000 </v>
   <v>       0.00000000      -0.00000000      -0.00000000 </v>
   <v>       0.00000000       1.19075493      -0.00000000 </v>
   <v>       0.00000000      -1.19075493      -0.00000000 </v>
   <v>      -1.00914978      -0.13615657       0.56973383 </v>
   <v>      -1.00914978       0.13615657      -0.56973383 </v>
   <v>       1.00914978      -0.13615657      -0.56973383 </v>
   <v>       1.00914978       0.13615657       0.56973383 </v>
   <v>       0.00000000      -0.00000000      -0.00000000 </v>
   <v>      -1.20740749      -0.00000000       0.00000000 </v>
   <v>       1.20740749      -0.00000000       0.00000000 </v>
  </varray>
  <varray name="stress" >
   <v>    -142.26481975       0.00000000       0.00000000 </v>
   <v>       0.00000000     -65.98488029       0.00000000 </v>
   <v>       0.00000000       0.00000000    -129.27231787 </v>
  </varray>
  <energy>
   <i name="e_fr_energy">   -161.45262064 </i>
   <i name="e_wo_entrp">   -161.37065945 </i>
   <i name="e_0_energy">     -0.16392237 </i>
  </energy>
  <time name="totalsc">   55.53   55.60</time>
 </calculation>
 <calculation>
  <scstep>
   <time name="dav">    1.44    1.45</time>
   <time name="total">    1.54    1.54</time>
   <energy>
    <i name="alphaZ">    463.29385489 </i>
    <i name="ewald">  -4688.97084665 </i>
    <i name="hartreedc">   -995.90627611 </i>
    <i name="XCdc">   -774.63683684 </i>
    <i name="pawpsdc">   7199.16031433 </i>
    <i name="pawaedc">  -6391.34948922 </i>
    <i name="eentropy">     -0.15206528 </i>
    <i name="bandstr">    339.38088877 </i>
    <i name="atom">   4687.48422623 </i>
    <i name="e_fr_energy">   -161.69622988 </i>
    <i name="e_wo_entrp">   -161.54416459 </i>
    <i name="e_0_energy">   -161.62019724 </i>
   </energy>
  </scstep>
  <scstep>
   <time name="dav">    2.35    2.35</time>
   <time name="total">    2.44    2.44</time>
   <energy>
    <i name="e_fr_energy">   -170.18331093 </i>
    <i name="e_wo_entrp">   -170.04270450 </i>
    <i name="e_0_energy">   -170.11300771 </i>
   </energy>
  </scstep>
  <scstep>
   <time name="dav">    2.25    2.26</time>
   <time name="total">    2.35    2.35</time>
   <energy>
    <i name="e_fr_energy">   -161.40447292 </i>
    <i name="e_wo_entrp">   -161.25711080 </i>
    <i name="e_0_energy">   -161.33079186 </i>
   </energy>
  </scstep>
  <scstep>
   <time name="dav">    2.04    2.04</time>
   <time name="total">    2.13    2.13</time>
   <energy>
    <i name="e_fr_energy">   -161.60045772 </i>
    <i name="e_wo_entrp">   -161.44019962 </i>
    <i name="e_0_energy">   -161.52032867 </i>
   </energy>
  </scstep>
  <scstep>
   <time name="dav">    2.14    2.15</time>
   <time name="total">    2.24    2.24</time>
   <energy>
    <i name="e_fr_energy">   -161.59855695 </i>
    <i name="e_wo_entrp">   -161.44584834 </i>
    <i name="e_0_energy">   -161.52220264 </i>
   </energy>
  </scstep>
  <scstep>
   <time name="dav">    2.11    2.11</time>
   <time name="total">    2.20    2.20</time>
   <energy>
    <i name="e_fr_energy">   -161.54943206 </i>
    <i name="e_wo_entrp">   -161.39318355 </i>
    <i name="e_0_energy">   -161.47130781 </i>
   </energy>
  </scstep>
  <scstep>
   <time name="dav">    2.05    2.05</time>
   <time name="total">    2.14    2.14</time>
   <energy>
    <i name="e_fr_energy">   -161.54031830 </i>
    <i name="e_wo_entrp">   -161.38222452 </i>
    <i name="e_0_energy">   -161.46127141 </i>
   </energy>
  </scstep>
  <scstep>
   <time name="dav">    2.14    2.15</time>
   <time name="total">    2.24    2.24</time>
   <energy>
    <i name="e_fr_energy">   -161.53255612 </i>
    <i name="e_wo_entrp">   -161.37392225 </i>
    <i name="e_0_energy">   -161.45323918 </i>
   </energy>
  </scstep>
  <scstep>
   <time name="dav">    1.96    1.96</time>
   <time name="total">    2.05    2.05</time>
   <energy>
    <i name="e_fr_energy">   -161.53233420 </i>
    <i name="e_wo_entrp">   -161.37435613 </i>
    <i name="e_0_energy">   -161.45334517 </i>
   </energy>
  </scstep>
  <scstep>
   <time name="dav">    2.09    2.09</time>
   <time name="total">    2.18    2.18</time>
   <energy>
    <i name="e_fr_energy">   -161.53183135 </i>
    <i name="e_wo_entrp">   -161.37347209 </i>
    <i name="e_0_energy">   -161.45265172 </i>
   </energy>
  </scstep>
  <scstep>
   <time name="dav">    1.98    1.98</time>
   <time name="total">    2.08    2.08</time>
   <energy>
    <i name="e_fr_energy">   -161.53230559 </i>
    <i name="e_wo_entrp">   -161.37322014 </i>
    <i name="e_0_energy">   -161.45276287 </i>
   </energy>
  </scstep>
  <scstep>
   <time name="dav">    2.08    2.08</time>
   <time name="total">    2.18    2.18</time>
   <energy>
    <i name="e_fr_energy">   -161.53173819 </i>
    <i name="e_wo_entrp">   -161.37340504 </i>
    <i name="e_0_energy">   -161.45257161 </i>
   </energy>
  </scstep>
  <scstep>
   <time name="dav">    1.95    1.95</time>
   <time name="total">    2.04    2.04</time>
   <energy>
    <i name="e_fr_energy">   -161.53171275 </i>
    <i name="e_wo_entrp">   -161.37324316 </i>
    <i name="e_0_energy">   -161.45247795 </i>
   </energy>
  </scstep>
  <scstep>
   <time name="dav">    1.80    1.80</time>
   <time name="total">    1.89    1.90</time>
   <energy>
    <i name="e_fr_energy">   -161.53168472 </i>
    <i name="e_wo_entrp">   -161.37321189 </i>
    <i name="e_0_energy">   -161.45244830 </i>
   </energy>
  </scstep>
  <scstep>
   <time name="dav">    1.86    1.86</time>
   <time name="total">    1.95    1.95</time>
   <energy>
    <i name="e_fr_energy">   -161.53165600 </i>
    <i name="e_wo_entrp">   -161.37320203 </i>
    <i name="e_0_energy">   -161.45242901 </i>
   </energy>
  </scstep>
  <scstep>
   <time name="dav">    1.00    1.00</time>
   <time name="total">    1.04    1.04</time>
   <energy>
    <i name="alphaZ">    463.29385489 </i>
    <i name="ewald">  -4688.97084665 </i>
    <i name="hartreedc">   -985.92319118 </i>
    <i name="XCdc">   -774.87717309 </i>
    <i name="pawpsdc">   7316.23511059 </i>
    <i name="pawaedc">  -6509.38163418 </i>
    <i name="eentropy">     -0.15844163 </i>
    <i name="bandstr">    330.76643934 </i>
    <i name="atom">   4687.48422623 </i>
    <i name="e_fr_energy">   -161.53165569 </i>
    <i name="e_wo_entrp">   -161.37321405 </i>
    <i name="e_0_energy">   -161.45243487 </i>
   </energy>
  </scstep>
  <structure>
   <crystal>
    <varray name="basis" >
     <v>       8.07278235       0.00000000       0.00000000 </v>
     <v>       0.00000000       8.36084714       0.00000000 </v>
     <v>       0.00000000       0.00000000       4.57704885 </v>
    </varray>
    <i name="volume">    308.92928185 </i>
    <varray name="rec_basis" >
     <v>       0.12387303       0.00000000       0.00000000 </v>
     <v>       0.00000000       0.11960510       0.00000000 </v>
     <v>       0.00000000       0.00000000       0.21848139 </v>
    </varray>
   </crystal>
   <varray name="positions" >
    <v>       0.24142246       0.50000000       0.50000000 </v>
    <v>       0.75857754       0.50000000       0.50000000 </v>
    <v>       0.70874177       0.86371637       0.94052589 </v>
    <v>       0.70874177       0.13628363       0.05947411 </v>
    <v>       0.29125823       0.86371637       0.05947411 </v>
    <v>       0.29125823       0.13628363       0.94052589 </v>
    <v>       0.50000000       0.34329038       0.50000000 </v>
    <v>       0.50000000       0.65670962       0.50000000 </v>
    <v>      -0.00000000       0.82117638       0.50000000 </v>
    <v>      -0.00000000       0.17882362       0.50000000 </v>
    <v>       0.50000000       0.50000000       0.00000000 </v>
    <v>       0.00000000       0.85803917       0.00000000 </v>
    <v>       0.00000000       0.14196083       0.00000000 </v>
    <v>       0.84360135       0.38453216       0.96276714 </v>
    <v>       0.84360135       0.61546784       0.03723286 </v>
    <v>       0.15639865       0.38453216       0.03723286 </v>
    <v>       0.15639865       0.61546784       0.96276714 </v>
    <v>       0.50000000      -0.00000000       0.50000000 </v>
    <v>       0.23407137      -0.00000000       0.50000000 </v>
    <v>       0.76592863      -0.00000000       0.50000000 </v>
   </varray>
  </structure>
  <varray name="forces" >
   <v>       0.01389761      -0.00000000      -0.00000000 </v>
   <v>      -0.01389761      -0.00000000      -0.00000000 </v>
   <v>      -1.68603010      -0.19428030       0.20087134 </v>
   <v>      -1.68603010       0.19428030      -0.20087134 </v>
   <v>       1.68603010      -0.19428030      -0.20087134 </v>
   <v>       1.68603010       0.19428030       0.20087134 </v>
   <v>       0.00000000      -0.65237952      -0.00000000 </v>
   <v>       0.00000000       0.65237952      -0.00000000 </v>
   <v>       0.00000000      -1.34613362      -0.00000000 </v>
   <v>       0.00000000       1.34613362      -0.00000000 </v>
   <v>       0.00000000      -0.00000000      -0.00000000 </v>
   <v>       0.00000000       1.60567338      -0.00000000 </v>
   <v>       0.00000000      -1.60567338      -0.00000000 </v>
   <v>      -1.20783553      -0.00761670       0.52161280 </v>
   <v>      -1.20783553       0.00761670      -0.52161280 </v>
   <v>       1.20783553      -0.00761670      -0.52161280 </v>
   <v>       1.20783553       0.00761670       0.52161280 </v>
   <v>       0.00000000      -0.00000000      -0.00000000 </v>
   <v>      -1.27721141      -0.00000000      -0.00000000 </v>
   <v>       1.27721141      -0.00000000      -0.00000000 </v>
  </varray>
  <varray name="stress" >
   <v>    -116.79764882       0.00000000       0.00000000 </v>
   <v>       0.00000000     -39.53718426       0.00000000 </v>
   <v>       0.00000000       0.00000000    -110.07369764 </v>
  </varray>
  <energy>
   <i name="e_fr_energy">   -161.53165569 </i>
   <i name="e_wo_entrp">   -161.45243487 </i>
   <i name="e_0_energy">     -0.15844163 </i>
  </energy>
  <time name="totalsc">   35.26   35.30</time>
 </calculation>
 <calculation>
  <scstep>
   <time name="dav">    1.50    1.50</time>
   <time name="total">    1.59    1.60</time>
   <energy>
    <i name="alphaZ">    465.35683613 </i>
    <i name="ewald">  -4694.54300048 </i>
    <i name="hartreedc">   -988.41433337 </i>
    <i name="XCdc">   -774.61124401 </i>
    <i name="pawpsdc">   7316.28879186 </i>
    <i name="pawaedc">  -6509.43121121 </i>
    <i name="eentropy">     -0.15414320 </i>
    <i name="bandstr">    336.47480155 </i>
    <i name="atom">   4687.48422623 </i>
    <i name="e_fr_energy">   -161.54927650 </i>
    <i name="e_wo_entrp">   -161.39513330 </i>
    <i name="e_0_energy">   -161.47220490 </i>
   </energy>
  </scstep>
  <scstep>
   <time name="dav">    2.34    2.35</time>
   <time name="total">    2.44    2.44</time>
   <energy>
    <i name="e_fr_energy">   -162.52050775 </i>
    <i name="e_wo_entrp">   -162.35566491 </i>
    <i name="e_0_energy">   -162.43808633 </i>
   </energy>
  </scstep>
  <scstep>
   <time name="dav">    2.30    2.30</time>
   <time name="total">    2.39    2.39</time>
   <energy>
    <i name="e_fr_energy">   -161.54079728 </i>
    <i name="e_wo_entrp">   -161.38774397 </i>
    <i name="e_0_energy">   -161.46427063 </i>
   </energy>
  </scstep>
  <scstep>
   <time name="dav">    2.08    2.09</time>
   <time name="total">    2.18    2.18</time>
   <energy>
    <i name="e_fr_energy">   -161.54043323 </i>
    <i name="e_wo_entrp">   -161.38544221 </i>
    <i name="e_0_energy">   -161.46293772 </i>
   </energy>
  </scstep>
  <scstep>
   <time name="dav">    2.23    2.23</time>
   <time name="total">    2.32    2.32</time>
   <energy>
    <i name="e_fr_energy">   -161.54086544 </i>
    <i name="e_wo_entrp">   -161.38445629 </i>
    <i name="e_0_energy">   -161.46266087 </i>
   </energy>
  </scstep>
  <scstep>
   <time name="dav">    2.16    2.16</time>
   <time name="total">    2.25    2.25</time>
   <energy>
    <i name="e_fr_energy">   -161.53494800 </i>
    <i name="e_wo_entrp">   -161.37917654 </i>
    <i name="e_0_energy">   -161.45706227 </i>
   </energy>
  </scstep>
  <scstep>
   <time name="dav">    2.00    2.00</time>
   <time name="total">    2.10    2.10</time>
   <energy>
    <i name="e_fr_energy">   -161.53465701 </i>
    <i name="e_wo_entrp">   -161.37831758 </i>
    <i name="e_0_energy">   -161.45648730 </i>
   </energy>
  </scstep>
  <scstep>
   <time name="dav">    2.32    2.32</time>
   <time name="total">    2.41    2.41</time>
   <energy>
    <i name="e_fr_energy">   -161.53397744 </i>
    <i name="e_wo_entrp">   -161.37752369 </i>
    <i name="e_0_energy">   -161.45575057 </i>
   </energy>
  </scstep>
  <scstep>
   <time name="dav">    2.00    2.00</time>
   <time name="total">    2.09    2.09</time>
   <energy>
    <i name="e_fr_energy">   -161.53389242 </i>
    <i name="e_wo_entrp">   -161.37756500 </i>
    <i name="e_0_energy">   -161.45572871 </i>
   </energy>
  </scstep>
  <scstep>
   <time name="dav">    2.05    2.06</time>
   <time name="total">    2.15    2.15</time>
   <energy>
    <i name="e_fr_energy">   -161.53388133 </i>
    <i name="e_wo_entrp">   -161.37741662 </i>
    <i name="e_0_energy">   -161.45564897 </i>
   </energy>
  </scstep>
  <scstep>
   <time name="dav">    1.96    1.96</time>
   <time name="total">    2.05    2.06</time>
   <energy>
    <i name="e_fr_energy">   -161.53386366 </i>
    <i name="e_wo_entrp">   -161.37731841 </i>
    <i name="e_0_energy">   -161.45559104 </i>
   </energy>
  </scstep>
  <scstep>
   <time name="dav">    1.81    1.81</time>
   <time name="total">    1.90    1.90</time>
   <energy>
    <i name="e_fr_energy">   -161.53387100 </i>
    <i name="e_wo_entrp">   -161.37734468 </i>
    <i name="e_0_energy">   -161.45560784 </i>
   </energy>
  </scstep>
  <scstep>
   <time name="dav">    1.59    1.60</time>
   <time name="total">    1.69    1.69</time>
   <energy>
    <i name="e_fr_energy">   -161.53385698 </i>
    <i name="e_wo_entrp">   -161.37731875 </i>
    <i name="e_0_energy">   -161.45558787 </i>
   </energy>
  </scstep>
  <scstep>
   <time name="dav">    0.97    0.97</time>
   <time name="total">    1.01    1.01</time>
   <energy>
    <i name="alphaZ">    465.35683613 </i>
    <i name="ewald">  -4694.54300048 </i>
    <i name="hartreedc">   -985.38627237 </i>
    <i name="XCdc">   -774.68353343 </i>
    <i name="pawpsdc">   7353.89007587 </i>
    <i name="pawaedc">  -6547.32924893 </i>
    <i name="eentropy">     -0.15651553 </i>
    <i name="bandstr">    333.83357591 </i>
    <i name="atom">   4687.48422623 </i>
    <i name="e_fr_energy">   -161.53385661 </i>
    <i name="e_wo_entrp">   -161.37734108 </i>
    <i name="e_0_energy">   -161.45559885 </i>
   </energy>
  </scstep>
  <structure>
   <crystal>
    <varray name="basis" >
     <v>       8.05962488       0.00000000       0.00000000 </v>
     <v>       0.00000000       8.34544333       0.00000000 </v>
     <v>       0.00000000       0.00000000       4.57262172 </v>
    </varray>
    <i name="volume">    307.55976224 </i>
    <varray name="rec_basis" >
     <v>       0.12407525       0.00000000       0.00000000 </v>
     <v>       0.00000000       0.11982587       0.00000000 </v>
     <v>       0.00000000       0.00000000       0.21869292 </v>
    </varray>
   </crystal>
   <varray name="positions" >
    <v>       0.24150113       0.50000000       0.50000000 </v>
    <v>       0.75849887       0.50000000       0.50000000 </v>
    <v>       0.70905846       0.86379249       0.94044264 </v>
    <v>       0.70905846       0.13620751       0.05955736 </v>
    <v>       0.29094154       0.86379249       0.05955736 </v>
    <v>       0.29094154       0.13620751       0.94044264 </v>
    <v>       0.50000000       0.34369616       0.50000000 </v>
    <v>       0.50000000       0.65630384       0.50000000 </v>
    <v>      -0.00000000       0.82143965       0.50000000 </v>
    <v>      -0.00000000       0.17856035       0.50000000 </v>
    <v>       0.50000000       0.50000000       0.00000000 </v>
    <v>       0.00000000       0.85744190       0.00000000 </v>
    <v>       0.00000000       0.14255810       0.00000000 </v>
    <v>       0.84404088       0.38435088       0.96288640 </v>
    <v>       0.84404088       0.61564912       0.03711360 </v>
    <v>       0.15595912       0.38435088       0.03711360 </v>
    <v>       0.15595912       0.61564912       0.96288640 </v>
    <v>       0.50000000      -0.00000000       0.50000000 </v>
    <v>       0.23426566      -0.00000000       0.50000000 </v>
    <v>       0.76573434      -0.00000000       0.50000000 </v>
   </varray>
  </structure>
  <varray name="forces" >
   <v>      -0.00838461      -0.00000000      -0.00000000 </v>
   <v>       0.00838461      -0.00000000      -0.00000000 </v>
   <v>      -1.73590075      -0.21910614       0.20956041 </v>
   <v>      -1.73590075       0.21910614      -0.20956041 </v>
   <v>       1.73590075      -0.21910614      -0.20956041 </v>
   <v>       1.73590075       0.21910614       0.20956041 </v>
   <v>       0.00000000      -0.71836762      -0.00000000 </v>
   <v>       0.00000000       0.71836762      -0.00000000 </v>
   <v>       0.00000000      -1.38412882      -0.00000000 </v>
   <v>       0.00000000       1.38412882      -0.00000000 </v>
   <v>       0.00000000      -0.00000000      -0.00000000 </v>
   <v>       0.00000000       1.73753467      -0.00000000 </v>
   <v>       0.00000000      -1.73753467      -0.00000000 </v>
   <v>      -1.27421041       0.03279128       0.50442896 </v>
   <v>      -1.27421041      -0.03279128      -0.50442896 </v>
   <v>       1.27421041       0.03279128      -0.50442896 </v>
   <v>       1.27421041      -0.03279128       0.50442896 </v>
   <v>       0.00000000      -0.00000000      -0.00000000 </v>
   <v>      -1.30073606      -0.00000000      -0.00000000 </v>
   <v>       1.30073606      -0.00000000      -0.00000000 </v>
  </varray>
  <varray name="stress" >
   <v>    -109.13124230       0.00000000       0.00000000 </v>
   <v>       0.00000000     -31.77430081       0.00000000 </v>
   <v>       0.00000000       0.00000000    -104.68864224 </v>
  </varray>
  <energy>
   <i name="e_fr_energy">   -161.53385661 </i>
   <i name="e_wo_entrp">   -161.45559885 </i>
   <i name="e_0_energy">     -0.15651553 </i>
  </energy>
  <time name="totalsc">   31.19   31.22</time>
 </calculation>
 <calculation>
  <scstep>
   <time name="dav">    1.43    1.44</time>
   <time name="total">    1.53    1.53</time>
   <energy>
    <i name="alphaZ">    501.08339878 </i>
    <i name="ewald">  -4841.66398525 </i>
    <i name="hartreedc">   -989.07581766 </i>
    <i name="XCdc">   -770.45644016 </i>
    <i name="pawpsdc">   7353.82662783 </i>
    <i name="pawaedc">  -6547.26371244 </i>
    <i name="eentropy">     -0.11466551 </i>
    <i name="bandstr">    437.95398379 </i>
    <i name="atom">   4687.48422623 </i>
    <i name="e_fr_energy">   -168.22638439 </i>
    <i name="e_wo_entrp">   -168.11171888 </i>
    <i name="e_0_energy">   -168.16905163 </i>
   </energy>
  </scstep>
  <scstep>
   <time name="dav">    2.13    2.13</time>
   <time name="total">    2.22    2.23</time>
   <energy>
    <i name="e_fr_energy">   -235.26385620 </i>
    <i name="e_wo_entrp">   -235.15046541 </i>
    <i name="e_0_energy">   -235.20716081 </i>
   </energy>
  </scstep>
  <scstep>
   <time name="dav">    2.14    2.15</time>
   <time name="total">    2.24    2.24</time>
   <energy>
    <i name="e_fr_energy">   -173.59059416 </i>
    <i name="e_wo_entrp">   -173.49599827 </i>
    <i name="e_0_energy">   -173.54329622 </i>
   </energy>
  </scstep>
  <scstep>
   <time name="dav">    2.27    2.28</time>
   <time name="total">    2.36    2.37</time>
   <energy>
    <i name="e_fr_energy">   -166.44572699 </i>
    <i name="e_wo_entrp">   -166.29742198 </i>
    <i name="e_0_energy">   -166.37157448 </i>
   </energy>
  </scstep>
  <scstep>
   <time name="dav">    2.02    2.02</time>
   <time name="total">    2.11    2.11</time>
   <energy>
    <i name="e_fr_energy">   -164.90393349 </i>
    <i name="e_wo_entrp">   -164.76547122 </i>
    <i name="e_0_energy">   -164.83470236 </i>
   </energy>
  </scstep>
  <scstep>
   <time name="dav">    2.25    2.25</time>
   <time name="total">    2.34    2.35</time>
   <energy>
    <i name="e_fr_energy">   -165.13176146 </i>
    <i name="e_wo_entrp">   -164.99107554 </i>
    <i name="e_0_energy">   -165.06141850 </i>
   </energy>
  </scstep>
  <scstep>
   <time name="dav">    2.20    2.20</time>
   <time name="total">    2.29    2.30</time>
   <energy>
    <i name="e_fr_energy">   -164.43895883 </i>
    <i name="e_wo_entrp">   -164.27602566 </i>
    <i name="e_0_energy">   -164.35749224 </i>
   </energy>
  </scstep>
  <scstep>
   <time name="dav">    2.30    2.30</time>
   <time name="total">    2.39    2.40</time>
   <energy>
    <i name="e_fr_energy">   -164.28630705 </i>
    <i name="e_wo_entrp">   -164.11688598 </i>
    <i name="e_0_energy">   -164.20159652 </i>
   </energy>
  </scstep>
  <scstep>
   <time name="dav">    1.92    1.92</time>
   <time name="total">    2.01    2.02</time>
   <energy>
    <i name="e_fr_energy">   -164.22208964 </i>
    <i name="e_wo_entrp">   -164.05474545 </i>
    <i name="e_0_energy">   -164.13841754 </i>
   </energy>
  </scstep>
  <scstep>
   <time name="dav">    2.05    2.05</time>
   <time name="total">    2.14    2.15</time>
   <energy>
    <i name="e_fr_energy">   -164.15282549 </i>
    <i name="e_wo_entrp">   -163.98754437 </i>
    <i name="e_0_energy">   -164.07018493 </i>
   </energy>
  </scstep>
  <scstep>
   <time name="dav">    2.32    2.32</time>
   <time name="total">    2.41    2.41</time>
   <energy>
    <i name="e_fr_energy">   -164.09898948 </i>
    <i name="e_wo_entrp">   -163.93926610 </i>
    <i name="e_0_energy">   -164.01912779 </i>
   </energy>
  </scstep>
  <scstep>
   <time name="dav">    2.10    2.11</time>
   <time name="total">    2.20    2.20</time>
   <energy>
    <i name="e_fr_energy">   -164.09070355 </i>
    <i name="e_wo_entrp">   -163.93180300 </i>
    <i name="e_0_energy">   -164.01125328 </i>
   </energy>
  </scstep>
  <scstep>
   <time name="dav">    2.12    2.13</time>
   <time name="total">    2.22    2.22</time>
   <energy>
    <i name="e_fr_energy">   -164.08845579 </i>
    <i name="e_wo_entrp">   -163.92997904 </i>
    <i name="e_0_energy">   -164.00921741 </i>
   </energy>
  </scstep>
  <scstep>
   <time name="dav">    2.01    2.01</time>
   <time name="total">    2.10    2.11</time>
   <energy>
    <i name="e_fr_energy">   -164.08540169 </i>
    <i name="e_wo_entrp">   -163.92760898 </i>
    <i name="e_0_energy">   -164.00650533 </i>
   </energy>
  </scstep>
  <scstep>
   <time name="dav">    2.33    2.34</time>
   <time name="total">    2.43    2.43</time>
   <energy>
    <i name="e_fr_energy">   -164.08141139 </i>
    <i name="e_wo_entrp">   -163.92542262 </i>
    <i name="e_0_energy">   -164.00341700 </i>
   </energy>
  </scstep>
  <scstep>
   <time name="dav">    2.06    2.06</time>
   <time name="total">    2.15    2.15</time>
   <energy>
    <i name="e_fr_energy">   -164.08111604 </i>
    <i name="e_wo_entrp">   -163.92546992 </i>
    <i name="e_0_energy">   -164.00329298 </i>
   </energy>
  </scstep>
  <scstep>
   <time name="dav">    2.08    2.08</time>
[...]
       <r>    6.7103    0.0000 </r>
       <r>    6.7370    0.0000 </r>
       <r>    6.7649    0.0000 </r>
       <r>    6.9131    0.0000 </r>
       <r>    7.0263    0.0000 </r>
       <r>    7.1544    0.0000 </r>
       <r>    7.2132    0.0000 </r>
       <r>    7.3622    0.0000 </r>
      </set>
      <set comment="kpoint 8">
       <r>    1.2233    1.0000 </r>
       <r>    1.3754    1.0000 </r>
       <r>    1.8062    1.0000 </r>
       <r>    1.8852    1.0000 </r>
       <r>    2.5989    1.0000 </r>
       <r>    2.7201    1.0000 </r>
       <r>    2.8113    1.0000 </r>
       <r>    2.8826    1.0000 </r>
       <r>    3.0112    1.0000 </r>
       <r>    3.1058    1.0000 </r>
       <r>    3.1616    1.0000 </r>
       <r>    3.1979    1.0000 </r>
       <r>    3.3540    1.0000 </r>
       <r>    3.3712    1.0000 </r>
       <r>    3.3845    1.0000 </r>
       <r>    3.4420    1.0000 </r>
       <r>    3.4967    1.0000 </r>
       <r>    3.6401    1.0000 </r>
       <r>    3.7004    1.0000 </r>
       <r>    3.7577    1.0000 </r>
       <r>    3.7646    1.0000 </r>
       <r>    3.8496    1.0000 </r>
       <r>    3.9196    1.0000 </r>
       <r>    4.0076    1.0000 </r>
       <r>    4.2463    1.0000 </r>
       <r>    4.3192    1.0000 </r>
       <r>    4.3588    1.0000 </r>
       <r>    4.4815    1.0000 </r>
       <r>    4.5549    1.0000 </r>
       <r>    4.5801    1.0000 </r>
       <r>    4.6810    1.0000 </r>
       <r>    4.7133    1.0000 </r>
       <r>    4.7709    1.0000 </r>
       <r>    4.8106    1.0000 </r>
       <r>    4.8162    1.0000 </r>
       <r>    4.9493    1.0000 </r>
       <r>    4.9920    1.0000 </r>
       <r>    5.1045    1.0000 </r>
       <r>    5.2391    1.0000 </r>
       <r>    5.2865    1.0000 </r>
       <r>    5.3216    1.0000 </r>
       <r>    5.3326    1.0000 </r>
       <r>    5.3865    1.0000 </r>
       <r>    5.4249    1.0000 </r>
       <r>    5.5097    1.0000 </r>
       <r>    5.5526    1.0000 </r>
       <r>    5.5739    1.0000 </r>
       <r>    5.6893    1.0000 </r>
       <r>    5.7089    1.0000 </r>
       <r>    5.7684    1.0000 </r>
       <r>    5.8684    1.0000 </r>
       <r>    5.9505    0.9999 </r>
       <r>    5.9698    0.9998 </r>
       <r>    6.0793    0.9741 </r>
       <r>    6.2228    0.4660 </r>
       <r>    6.2646    0.2492 </r>
       <r>    6.2672    0.2378 </r>
       <r>    6.3604    0.0211 </r>
       <r>    6.4082    0.0034 </r>
       <r>    6.4955    0.0000 </r>
       <r>    6.5144    0.0000 </r>
       <r>    6.7876    0.0000 </r>
       <r>    6.8044    0.0000 </r>
       <r>    6.9207    0.0000 </r>
       <r>    7.0021    0.0000 </r>
       <r>    7.0176    0.0000 </r>
       <r>    7.0350    0.0000 </r>
       <r>    7.2588    0.0000 </r>
      </set>
     </set>
    </set>
   </array>
  </eigenvalues>
  <separator name="orbital magnetization" >
   <v name="MAGDIPOLOUT">      0.00000000      0.00000000      0.00000000</v>
  </separator>
  <dos>
   <i name="efermi">      6.21677750 </i>
   <total>
    <array>
     <dimension dim="1">gridpoints</dimension>
     <dimension dim="2">spin</dimension>
     <field>energy</field>
     <field>total</field>
     <field>integrated</field>
     <set>
      <set comment="spin 1">
       <r>    -1.6814     0.0000     0.0000 </r>
       <r>    -1.6479     0.0000     0.0000 </r>
       <r>    -1.6144     0.0000     0.0000 </r>
       <r>    -1.5809     0.0000     0.0000 </r>
       <r>    -1.5474     0.0000     0.0000 </r>
       <r>    -1.5140     0.0000     0.0000 </r>
       <r>    -1.4805     0.0000     0.0000 </r>
       <r>    -1.4470     0.0000     0.0000 </r>
       <r>    -1.4135     0.0000     0.0000 </r>
       <r>    -1.3800     0.0000     0.0000 </r>
       <r>    -1.3466     0.0000     0.0000 </r>
       <r>    -1.3131     0.0000     0.0000 </r>
       <r>    -1.2796     0.0000     0.0000 </r>
       <r>    -1.2461     0.0000     0.0000 </r>
       <r>    -1.2127     0.0000     0.0000 </r>
       <r>    -1.1792     0.0000     0.0000 </r>
       <r>    -1.1457     0.0000     0.0000 </r>
       <r>    -1.1122     0.0000     0.0000 </r>
       <r>    -1.0787     0.0000     0.0000 </r>
       <r>    -1.0453     0.0000     0.0000 </r>
       <r>    -1.0118     0.0000     0.0000 </r>
       <r>    -0.9783     0.0001     0.0000 </r>
       <r>    -0.9448     0.0004     0.0000 </r>
       <r>    -0.9113     0.0024     0.0001 </r>
       <r>    -0.8779     0.0107     0.0005 </r>
       <r>    -0.8444     0.0390     0.0018 </r>
       <r>    -0.8109     0.1140     0.0056 </r>
       <r>    -0.7774     0.2671     0.0145 </r>
       <r>    -0.7440     0.5023     0.0313 </r>
       <r>    -0.7105     0.7579     0.0567 </r>
       <r>    -0.6770     0.9177     0.0874 </r>
       <r>    -0.6435     0.8919     0.1173 </r>
       <r>    -0.6100     0.6961     0.1406 </r>
       <r>    -0.5766     0.4389     0.1553 </r>
       <r>    -0.5431     0.2343     0.1631 </r>
       <r>    -0.5096     0.1418     0.1679 </r>
       <r>    -0.4761     0.1762     0.1738 </r>
       <r>    -0.4426     0.3329     0.1849 </r>
       <r>    -0.4092     0.5773     0.2043 </r>
       <r>    -0.3757     0.8174     0.2316 </r>
       <r>    -0.3422     0.9308     0.2628 </r>
       <r>    -0.3087     0.8507     0.2913 </r>
       <r>    -0.2753     0.6240     0.3122 </r>
       <r>    -0.2418     0.3673     0.3245 </r>
       <r>    -0.2083     0.1735     0.3303 </r>
       <r>    -0.1748     0.0660     0.3325 </r>
       <r>    -0.1413     0.0213     0.3332 </r>
       <r>    -0.1079     0.0116     0.3336 </r>
       <r>    -0.0744     0.0283     0.3345 </r>
       <r>    -0.0409     0.0909     0.3376 </r>
       <r>    -0.0074     0.2448     0.3458 </r>
       <r>     0.0261     0.5386     0.3638 </r>
       <r>     0.0595     0.9713     0.3963 </r>
       <r>     0.0930     1.4462     0.4447 </r>
       <r>     0.1265     1.8031     0.5051 </r>
       <r>     0.1600     1.9444     0.5702 </r>
       <r>     0.1935     1.9444     0.6353 </r>
       <r>     0.2269     2.0112     0.7026 </r>
       <r>     0.2604     2.3073     0.7799 </r>
       <r>     0.2939     2.7902     0.8733 </r>
       <r>     0.3274     3.2138     0.9809 </r>
       <r>     0.3608     3.2994     1.0913 </r>
       <r>     0.3943     2.9595     1.1904 </r>
       <r>     0.4278     2.4005     1.2708 </r>
       <r>     0.4613     1.9972     1.3376 </r>
       <r>     0.4948     2.0115     1.4050 </r>
       <r>     0.5282     2.3761     1.4845 </r>
       <r>     0.5617     2.7309     1.5760 </r>
       <r>     0.5952     2.7058     1.6665 </r>
       <r>     0.6287     2.2112     1.7406 </r>
       <r>     0.6622     1.4710     1.7898 </r>
       <r>     0.6956     0.7964     1.8165 </r>
       <r>     0.7291     0.3645     1.8287 </r>
       <r>     0.7626     0.1873     1.8350 </r>
       <r>     0.7961     0.2117     1.8420 </r>
       <r>     0.8295     0.3955     1.8553 </r>
       <r>     0.8630     0.7067     1.8789 </r>
       <r>     0.8965     1.1080     1.9160 </r>
       <r>     0.9300     1.5844     1.9691 </r>
       <r>     0.9635     2.1678     2.0417 </r>
       <r>     0.9969     2.8791     2.1380 </r>
       <r>     1.0304     3.6526     2.2603 </r>
       <r>     1.0639     4.3914     2.4073 </r>
       <r>     1.0974     5.0813     2.5775 </r>
       <r>     1.1309     5.7374     2.7695 </r>
       <r>     1.1643     6.2172     2.9777 </r>
       <r>     1.1978     6.2203     3.1859 </r>
       <r>     1.2313     5.5722     3.3725 </r>
       <r>     1.2648     4.4726     3.5222 </r>
       <r>     1.2982     3.3909     3.6357 </r>
       <r>     1.3317     2.6872     3.7257 </r>
       <r>     1.3652     2.3462     3.8043 </r>
       <r>     1.3987     2.0885     3.8742 </r>
       <r>     1.4322     1.7120     3.9315 </r>
       <r>     1.4656     1.2925     3.9748 </r>
       <r>     1.4991     1.0854     4.0111 </r>
       <r>     1.5326     1.2856     4.0541 </r>
       <r>     1.5661     1.8513     4.1161 </r>
       <r>     1.5996     2.4925     4.1996 </r>
       <r>     1.6330     2.8551     4.2952 </r>
       <r>     1.6665     2.8185     4.3895 </r>
       <r>     1.7000     2.6417     4.4780 </r>
       <r>     1.7335     2.7579     4.5703 </r>
       <r>     1.7669     3.3707     4.6831 </r>
       <r>     1.8004     4.2412     4.8251 </r>
       <r>     1.8339     4.8616     4.9879 </r>
       <r>     1.8674     4.8352     5.1498 </r>
       <r>     1.9009     4.1261     5.2879 </r>
       <r>     1.9343     3.0361     5.3895 </r>
       <r>     1.9678     2.0079     5.4568 </r>
       <r>     2.0013     1.4285     5.5046 </r>
       <r>     2.0348     1.5313     5.5558 </r>
       <r>     2.0683     2.3828     5.6356 </r>
       <r>     2.1017     3.8681     5.7651 </r>
       <r>     2.1352     5.6603     5.9546 </r>
       <r>     2.1687     7.2947     6.1988 </r>
       <r>     2.2022     8.4079     6.4803 </r>
       <r>     2.2356     8.9279     6.7792 </r>
       <r>     2.2691     8.9881     7.0801 </r>
       <r>     2.3026     8.7369     7.3726 </r>
       <r>     2.3361     8.3507     7.6522 </r>
       <r>     2.3696     8.1342     7.9245 </r>
       <r>     2.4030     8.3836     8.2052 </r>
       <r>     2.4365     9.1230     8.5106 </r>
       <r>     2.4700    10.1077     8.8490 </r>
       <r>     2.5035    11.1186     9.2212 </r>
       <r>     2.5370    12.1526     9.6281 </r>
       <r>     2.5704    13.2789    10.0726 </r>
       <r>     2.6039    14.3901    10.5544 </r>
       <r>     2.6374    15.1713    11.0623 </r>
       <r>     2.6709    15.3004    11.5746 </r>
       <r>     2.7043    14.6859    12.0662 </r>
       <r>     2.7378    13.5937    12.5213 </r>
       <r>     2.7713    12.5798    12.9425 </r>
       <r>     2.8048    12.2287    13.3519 </r>
       <r>     2.8383    12.8678    13.7827 </r>
       <r>     2.8717    14.4738    14.2672 </r>
       <r>     2.9052    16.7766    14.8289 </r>
       <r>     2.9387    19.4051    15.4785 </r>
       <r>     2.9722    21.9916    16.2148 </r>
       <r>     3.0057    24.2787    17.0276 </r>
       <r>     3.0391    26.2171    17.9053 </r>
       <r>     3.0726    27.9000    18.8394 </r>
       <r>     3.1061    29.2971    19.8202 </r>
       <r>     3.1396    30.0945    20.8277 </r>
       <r>     3.1730    29.9444    21.8302 </r>
       <r>     3.2065    28.9144    22.7982 </r>
       <r>     3.2400    27.6254    23.7231 </r>
       <r>     3.2735    26.9630    24.6258 </r>
       <r>     3.3070    27.6198    25.5505 </r>
       <r>     3.3404    29.6449    26.5429 </r>
       <r>     3.3739    32.2156    27.6215 </r>
       <r>     3.4074    33.9938    28.7595 </r>
       <r>     3.4409    33.9793    29.8971 </r>
       <r>     3.4744    32.1562    30.9736 </r>
       <r>     3.5078    29.4133    31.9584 </r>
       <r>     3.5413    26.9004    32.8590 </r>
       <r>     3.5748    25.3299    33.7070 </r>
       <r>     3.6083    24.6637    34.5327 </r>
       <r>     3.6417    24.3572    35.3481 </r>
       <r>     3.6752    23.9352    36.1494 </r>
       <r>     3.7087    23.3674    36.9317 </r>
       <r>     3.7422    22.9203    37.6991 </r>
       <r>     3.7757    22.7999    38.4624 </r>
       <r>     3.8091    23.0979    39.2357 </r>
       <r>     3.8426    23.9420    40.0372 </r>
       <r>     3.8761    25.3639    40.8864 </r>
       <r>     3.9096    26.9721    41.7894 </r>
       <r>     3.9431    28.0171    42.7273 </r>
       <r>     3.9765    27.9209    43.6621 </r>
       <r>     4.0100    26.6633    44.5547 </r>
       <r>     4.0435    24.6624    45.3804 </r>
       <r>     4.0770    22.4903    46.1333 </r>
       <r>     4.1104    20.8205    46.8304 </r>
       <r>     4.1439    20.4268    47.5142 </r>
       <r>     4.1774    21.8324    48.2452 </r>
       <r>     4.2109    24.7215    49.0728 </r>
       <r>     4.2444    27.8075    50.0038 </r>
       <r>     4.2778    29.6266    50.9956 </r>
       <r>     4.3113    29.6927    51.9897 </r>
       <r>     4.3448    28.7727    52.9530 </r>
       <r>     4.3783    27.8983    53.8870 </r>
       <r>     4.4118    27.2845    54.8004 </r>
       <r>     4.4452    26.4166    55.6848 </r>
       <r>     4.4787    24.9924    56.5215 </r>
       <r>     4.5122    23.4267    57.3058 </r>
       <r>     4.5457    22.4683    58.0580 </r>
       <r>     4.5791    22.6622    58.8167 </r>
       <r>     4.6126    24.2425    59.6283 </r>
       <r>     4.6461    27.1032    60.5357 </r>
       <r>     4.6796    30.5245    61.5576 </r>
       <r>     4.7131    33.2439    62.6706 </r>
       <r>     4.7465    34.3521    63.8206 </r>
       <r>     4.7800    34.1678    64.9645 </r>
       <r>     4.8135    33.8757    66.0986 </r>
       <r>     4.8470    34.1518    67.2420 </r>
       <r>     4.8805    34.3626    68.3924 </r>
       <r>     4.9139    33.3471    69.5088 </r>
       <r>     4.9474    30.8712    70.5423 </r>
       <r>     4.9809    28.0262    71.4806 </r>
       <r>     5.0144    26.2285    72.3587 </r>
       <r>     5.0478    26.0959    73.2324 </r>
       <r>     5.0813    27.2520    74.1447 </r>
       <r>     5.1148    28.8752    75.1114 </r>
       <r>     5.1483    30.3271    76.1267 </r>
       <r>     5.1818    31.5534    77.1831 </r>
       <r>     5.2152    33.1072    78.2915 </r>
       <r>     5.2487    35.5747    79.4825 </r>
       <r>     5.2822    38.6659    80.7769 </r>
       <r>     5.3157    40.9874    82.1491 </r>
       <r>     5.3492    41.0795    83.5244 </r>
       <r>     5.3826    38.7707    84.8224 </r>
       <r>     5.4161    35.3799    86.0069 </r>
       <r>     5.4496    32.5997    87.0983 </r>
       <r>     5.4831    31.2748    88.1453 </r>
       <r>     5.5166    31.1389    89.1878 </r>
       <r>     5.5500    31.4579    90.2410 </r>
       <r>     5.5835    31.7884    91.3052 </r>
       <r>     5.6170    32.1917    92.3829 </r>
       <r>     5.6505    32.8369    93.4823 </r>
       <r>     5.6839    33.4918    94.6035 </r>
       <r>     5.7174    33.5365    95.7263 </r>
       <r>     5.7509    32.5712    96.8167 </r>
       <r>     5.7844    30.9021    97.8513 </r>
       <r>     5.8179    29.2909    98.8319 </r>
       <r>     5.8513    28.3070    99.7796 </r>
       <r>     5.8848    28.0355   100.7182 </r>
       <r>     5.9183    28.2459   101.6638 </r>
       <r>     5.9518    28.5686   102.6202 </r>
       <r>     5.9853    28.5265   103.5753 </r>
       <r>     6.0187    27.6841   104.5021 </r>
       <r>     6.0522    25.9595   105.3712 </r>
       <r>     6.0857    23.7824   106.1674 </r>
       <r>     6.1192    21.9019   106.9006 </r>
       <r>     6.1526    20.9841   107.6032 </r>
       <r>     6.1861    21.2549   108.3147 </r>
       <r>     6.2196    22.4161   109.0652 </r>
       <r>     6.2531    23.9232   109.8661 </r>
       <r>     6.2866    25.3755   110.7156 </r>
       <r>     6.3200    26.5809   111.6055 </r>
       <r>     6.3535    27.3188   112.5201 </r>
       <r>     6.3870    27.3480   113.4357 </r>
       <r>     6.4205    26.7760   114.3321 </r>
       <r>     6.4540    26.1277   115.2069 </r>
       <r>     6.4874    25.8418   116.0720 </r>
       <r>     6.5209    25.8882   116.9387 </r>
       <r>     6.5544    26.0142   117.8096 </r>
       <r>     6.5879    26.1820   118.6862 </r>
       <r>     6.6213    26.6237   119.5775 </r>
       <r>     6.6548    27.5244   120.4990 </r>
       <r>     6.6883    28.6976   121.4597 </r>
       <r>     6.7218    29.5654   122.4495 </r>
       <r>     6.7553    29.5148   123.4376 </r>
       <r>     6.7887    28.3847   124.3879 </r>
       <r>     6.8222    26.6675   125.2807 </r>
       <r>     6.8557    25.2134   126.1248 </r>
       <r>     6.8892    24.6722   126.9508 </r>
       <r>     6.9227    25.1191   127.7918 </r>
       <r>     6.9561    26.0382   128.6635 </r>
       <r>     6.9896    26.5461   129.5522 </r>
       <r>     7.0231    25.8282   130.4169 </r>
       <r>     7.0566    23.7053   131.2105 </r>
       <r>     7.0900    20.8582   131.9088 </r>
       <r>     7.1235    18.3582   132.5234 </r>
       <r>     7.1570    16.9117   133.0896 </r>
       <r>     7.1905    16.4542   133.6405 </r>
       <r>     7.2240    16.2364   134.1841 </r>
       <r>     7.2574    15.2869   134.6958 </r>
       <r>     7.2909    13.0926   135.1342 </r>
       <r>     7.3244     9.9926   135.4687 </r>
       <r>     7.3579     6.8353   135.6975 </r>
       <r>     7.3914     4.2764   135.8407 </r>
       <r>     7.4248     2.4783   135.9237 </r>
       <r>     7.4583     1.3127   135.9676 </r>
       <r>     7.4918     0.6141   135.9882 </r>
       <r>     7.5253     0.2447   135.9964 </r>
       <r>     7.5587     0.0809   135.9991 </r>
       <r>     7.5922     0.0218   135.9998 </r>
       <r>     7.6257     0.0048   136.0000 </r>
       <r>     7.6592     0.0008   136.0000 </r>
       <r>     7.6927     0.0001   136.0000 </r>
       <r>     7.7261     0.0000   136.0000 </r>
       <r>     7.7596     0.0000   136.0000 </r>
       <r>     7.7931     0.0000   136.0000 </r>
       <r>     7.8266     0.0000   136.0000 </r>
       <r>     7.8601     0.0000   136.0000 </r>
       <r>     7.8935     0.0000   136.0000 </r>
       <r>     7.9270     0.0000   136.0000 </r>
       <r>     7.9605     0.0000   136.0000 </r>
       <r>     7.9940     0.0000   136.0000 </r>
       <r>     8.0274     0.0000   136.0000 </r>
       <r>     8.0609     0.0000   136.0000 </r>
       <r>     8.0944     0.0000   136.0000 </r>
       <r>     8.1279     0.0000   136.0000 </r>
       <r>     8.1614     0.0000   136.0000 </r>
       <r>     8.1948     0.0000   136.0000 </r>
       <r>     8.2283     0.0000   136.0000 </r>
       <r>     8.2618     0.0000   136.0000 </r>
       <r>     8.2953     0.0000   136.0000 </r>
       <r>     8.3288     0.0000   136.0000 </r>
       <r>     8.3622     0.0000   136.0000 </r>
      </set>
     </set>
    </array>
   </total>
  </dos>
 </calculation>
 <structure name="finalpos" >
  <crystal>
   <varray name="basis" >
    <v>       7.00429837       0.00000000       0.00000000 </v>
    <v>       0.00000000       9.01041441       0.00000000 </v>
    <v>       0.00000000       0.00000000       4.20637078 </v>
   </varray>
   <i name="volume">    265.47092052 </i>
   <varray name="rec_basis" >
    <v>       0.14276947       0.00000000       0.00000000 </v>
    <v>       0.00000000       0.11098269       0.00000000 </v>
    <v>       0.00000000       0.00000000       0.23773463 </v>
   </varray>
  </crystal>
  <varray name="positions" >
   <v>       0.19458432       0.50000000       0.50000000 </v>
   <v>       0.80541568       0.50000000       0.50000000 </v>
   <v>       0.66093098       0.85993582       0.99996711 </v>
   <v>       0.66093098       0.14006418       0.00003289 </v>
   <v>       0.33906902       0.85993582       0.00003289 </v>
   <v>       0.33906902       0.14006418       0.99996711 </v>
   <v>       0.50000000       0.30998175       0.50000000 </v>
   <v>       0.50000000       0.69001825       0.50000000 </v>
   <v>       0.00000000       0.77430160       0.50000000 </v>
   <v>       0.00000000       0.22569840       0.50000000 </v>
   <v>       0.50000000       0.50000000      -0.00000000 </v>
   <v>       0.00000000       0.87203086      -0.00000000 </v>
   <v>       0.00000000       0.12796914      -0.00000000 </v>
   <v>       0.80650381       0.36801237       0.00043419 </v>
   <v>       0.80650381       0.63198763      -0.00043419 </v>
   <v>       0.19349619       0.36801237      -0.00043419 </v>
   <v>       0.19349619       0.63198763       0.00043419 </v>
   <v>       0.50000000      -0.00000000       0.50000000 </v>
   <v>       0.18355057      -0.00000000       0.50000000 </v>
   <v>       0.81644943      -0.00000000       0.50000000 </v>
  </varray>
 </structure>
</modeling>
