unknown system                          
           1
     7.567114    0.000000    0.000000
     0.000000    7.768847    0.000000
     0.000000    0.000000    4.406905
   V    Fe
  17   3
Direct configuration=     1
   0.24505200  0.50000000  0.50000000
   0.75494800  0.50000000  0.50000000
   0.72335200  0.86730700  0.93695000
   0.72335200  0.13269300  0.06305000
   0.27664800  0.86730700  0.06305000
   0.27664800  0.13269300  0.93695000
   0.50000000  0.36243100  0.50000000
   0.50000000  0.63756900  0.50000000
   0.00000000  0.83359500  0.50000000
   0.00000000  0.16640500  0.50000000
   0.50000000  0.50000000  0.00000000
   0.00000000  0.82986600  0.00000000
   0.00000000  0.17013400  0.00000000
   0.86387900  0.37598100  0.96789000
   0.86387900  0.62401900  0.03211000
   0.13612100  0.37598100  0.03211000
   0.13612100  0.62401900  0.96789000
   0.50000000  0.00000000  0.50000000
   0.24303500  0.00000000  0.50000000
   0.75696500  0.00000000  0.50000000
unknown system                          
           1
     8.613206    0.000000    0.000000
     0.000000    8.993536    0.000000
     0.000000    0.000000    4.758887
   V    Fe
  17   3
Direct configuration=     2
   0.23837911  0.50000000  0.50000000
   0.76162089  0.50000000  0.50000000
   0.69649119  0.86079380  0.94382387
   0.69649119  0.13920620  0.05617613
   0.30350881  0.86079380  0.05617613
   0.30350881  0.13920620  0.94382387
   0.50000000  0.32771100  0.50000000
   0.50000000  0.67228900  0.50000000
  -0.00000000  0.81106832  0.50000000
  -0.00000000  0.18893168  0.50000000
   0.50000000  0.50000000  0.00000000
   0.00000000  0.88097055  0.00000000
   0.00000000  0.11902945  0.00000000
   0.82659867  0.39149232  0.95804240
   0.82659867  0.60850768  0.04195760
   0.17340133  0.39149232  0.04195760
   0.17340133  0.60850768  0.95804240
   0.50000000 -0.00000000  0.50000000
   0.22655543 -0.00000000  0.50000000
   0.77344457 -0.00000000  0.50000000
unknown system                          
           1
     8.115666    0.000000    0.000000
     0.000000    8.411052    0.000000
     0.000000    0.000000    4.591478
   V    Fe
  17   3
Direct configuration=     3
   0.24116740  0.50000000  0.50000000
   0.75883260  0.50000000  0.50000000
   0.70771508  0.86346976  0.94079634
   0.70771508  0.13653024  0.05920366
   0.29228492  0.86346976  0.05920366
   0.29228492  0.13653024  0.94079634
   0.50000000  0.34197576  0.50000000
   0.50000000  0.65802424  0.50000000
  -0.00000000  0.82032343  0.50000000
  -0.00000000  0.17967657  0.50000000
   0.50000000  0.50000000  0.00000000
   0.00000000  0.85997418  0.00000000
   0.00000000  0.14002582  0.00000000
   0.84217639  0.38511948  0.96237968
   0.84217639  0.61488052  0.03762032
   0.15782361  0.38511948  0.03762032
   0.15782361  0.61488052  0.96237968
   0.50000000 -0.00000000  0.50000000
   0.23344148 -0.00000000  0.50000000
   0.76655852 -0.00000000  0.50000000
unknown system                          
           1
     8.072782    0.000000    0.000000
     0.000000    8.360847    0.000000
     0.000000    0.000000    4.577049
   V    Fe
  17   3
Direct configuration=     4
   0.24142246  0.50000000  0.50000000
   0.75857754  0.50000000  0.50000000
   0.70874177  0.86371637  0.94052589
   0.70874177  0.13628363  0.05947411
   0.29125823  0.86371637  0.05947411
   0.29125823  0.13628363  0.94052589
   0.50000000  0.34329038  0.50000000
   0.50000000  0.65670962  0.50000000
  -0.00000000  0.82117638  0.50000000
  -0.00000000  0.17882362  0.50000000
   0.50000000  0.50000000  0.00000000
   0.00000000  0.85803917  0.00000000
   0.00000000  0.14196083  0.00000000
   0.84360135  0.38453216  0.96276714
   0.84360135  0.61546784  0.03723286
   0.15639865  0.38453216  0.03723286
   0.15639865  0.61546784  0.96276714
   0.50000000 -0.00000000  0.50000000
   0.23407137 -0.00000000  0.50000000
   0.76592863 -0.00000000  0.50000000
unknown system                          
           1
     8.059625    0.000000    0.000000
     0.000000    8.345443    0.000000
     0.000000    0.000000    4.572622
   V    Fe
  17   3
Direct configuration=     5
   0.24150113  0.50000000  0.50000000
   0.75849887  0.50000000  0.50000000
   0.70905846  0.86379249  0.94044264
   0.70905846  0.13620751  0.05955736
   0.29094154  0.86379249  0.05955736
   0.29094154  0.13620751  0.94044264
   0.50000000  0.34369616  0.50000000
   0.50000000  0.65630384  0.50000000
  -0.00000000  0.82143965  0.50000000
  -0.00000000  0.17856035  0.50000000
   0.50000000  0.50000000  0.00000000
   0.00000000  0.85744190  0.00000000
   0.00000000  0.14255810  0.00000000
   0.84404088  0.38435088  0.96288640
   0.84404088  0.61564912  0.03711360
   0.15595912  0.38435088  0.03711360
   0.15595912  0.61564912  0.96288640
   0.50000000 -0.00000000  0.50000000
   0.23426566 -0.00000000  0.50000000
   0.76573434 -0.00000000  0.50000000
unknown system                          
           1
     7.781551    0.000000    0.000000
     0.000000    8.337309    0.000000
     0.000000    0.000000    4.402643
   V    Fe
  17   3
Direct configuration=     6
   0.24097214  0.50000000  0.50000000
   0.75902786  0.50000000  0.50000000
   0.69781885  0.86219145  0.94293147
   0.69781885  0.13780855  0.05706853
   0.30218115  0.86219145  0.05706853
   0.30218115  0.13780855  0.94293147
   0.50000000  0.33748552  0.50000000
   0.50000000  0.66251448  0.50000000
   0.00000000  0.81266485  0.50000000
   0.00000000  0.18733515  0.50000000
   0.50000000  0.50000000 -0.00000000
   0.00000000  0.87009908 -0.00000000
   0.00000000  0.12990092 -0.00000000
   0.83451641  0.38563613  0.96691168
   0.83451641  0.61436387  0.03308832
   0.16548359  0.38563613  0.03308832
   0.16548359  0.61436387  0.96691168
   0.50000000 -0.00000000  0.50000000
   0.22610829 -0.00000000  0.50000000
   0.77389171 -0.00000000  0.50000000
unknown system                          
           1
     7.597324    0.000000    0.000000
     0.000000    8.331921    0.000000
     0.000000    0.000000    4.290031
   V    Fe
  17   3
Direct configuration=     7
   0.24060916  0.50000000  0.50000000
   0.75939084  0.50000000  0.50000000
   0.69010639  0.86112970  0.94464401
   0.69010639  0.13887030  0.05535599
   0.30989361  0.86112970  0.05535599
   0.30989361  0.13887030  0.94464401
   0.50000000  0.33336689  0.50000000
   0.50000000  0.66663311  0.50000000
   0.00000000  0.80684577  0.50000000
   0.00000000  0.19315423  0.50000000
   0.50000000  0.50000000 -0.00000000
   0.00000000  0.87849278 -0.00000000
   0.00000000  0.12150722 -0.00000000
   0.82798086  0.38648845  0.96968143
   0.82798086  0.61351155  0.03031857
   0.17201914  0.38648845  0.03031857
   0.17201914  0.61351155  0.96968143
   0.50000000 -0.00000000  0.50000000
   0.22051082 -0.00000000  0.50000000
   0.77948918 -0.00000000  0.50000000
unknown system                          
           1
     7.455489    0.000000    0.000000
     0.000000    8.491085    0.000000
     0.000000    0.000000    4.269080
   V    Fe
  17   3
Direct configuration=     8
   0.23625994  0.50000000  0.50000000
   0.76374006  0.50000000  0.50000000
   0.67572873  0.85893942  0.94898435
   0.67572873  0.14106058  0.05101565
   0.32427127  0.85893942  0.05101565
   0.32427127  0.14106058  0.94898435
   0.50000000  0.32654909  0.50000000
   0.50000000  0.67345091  0.50000000
   0.00000000  0.79481039  0.50000000
   0.00000000  0.20518961  0.50000000
   0.50000000  0.50000000 -0.00000000
   0.00000000  0.87692661 -0.00000000
   0.00000000  0.12307339 -0.00000000
   0.82099845  0.38179854  0.97557298
   0.82099845  0.61820146  0.02442702
   0.17900155  0.38179854  0.02442702
   0.17900155  0.61820146  0.97557298
   0.50000000 -0.00000000  0.50000000
   0.21135972 -0.00000000  0.50000000
   0.78864028 -0.00000000  0.50000000
unknown system                          
           1
     7.029983    0.000000    0.000000
     0.000000    8.968579    0.000000
     0.000000    0.000000    4.206229
   V    Fe
  17   3
Direct configuration=     9
   0.22296404  0.50000000  0.50000000
   0.77703596  0.50000000  0.50000000
   0.63177518  0.85249173  0.96206929
   0.63177518  0.14750827  0.03793071
   0.36822482  0.85249173  0.03793071
   0.36822482  0.14750827  0.96206929
   0.50000000  0.30647906  0.50000000
   0.50000000  0.69352094  0.50000000
   0.00000000  0.75938107  0.50000000
   0.00000000  0.24061893  0.50000000
   0.50000000  0.50000000 -0.00000000
   0.00000000  0.87231614 -0.00000000
   0.00000000  0.12768386 -0.00000000
   0.79965273  0.36799252  0.99333438
   0.79965273  0.63200748  0.00666562
   0.20034727  0.36799252  0.00666562
   0.20034727  0.63200748  0.99333438
   0.50000000 -0.00000000  0.50000000
   0.18338416 -0.00000000  0.50000000
   0.81661584 -0.00000000  0.50000000
unknown system                          
           1
     7.221603    0.000000    0.000000
     0.000000    8.753548    0.000000
     0.000000    0.000000    4.234533
   V    Fe
  17   3
Direct configuration=    10
   0.22931404  0.50000000  0.50000000
   0.77068596  0.50000000  0.50000000
   0.65276699  0.85524075  0.95608866
   0.65276699  0.14475925  0.04391134
   0.34723301  0.85524075  0.04391134
   0.34723301  0.14475925  0.95608866
   0.50000000  0.31503606  0.50000000
   0.50000000  0.68496394  0.50000000
   0.00000000  0.77448661  0.50000000
   0.00000000  0.22551339  0.50000000
   0.50000000  0.50000000 -0.00000000
   0.00000000  0.87428185 -0.00000000
   0.00000000  0.12571815 -0.00000000
   0.80984725  0.37387882  0.98521632
   0.80984725  0.62612118  0.01478368
   0.19015275  0.37387882  0.01478368
   0.19015275  0.62612118  0.98521632
   0.50000000 -0.00000000  0.50000000
   0.19674503 -0.00000000  0.50000000
   0.80325497 -0.00000000  0.50000000
unknown system                          
           1
     7.187341    0.000000    0.000000
     0.000000    8.791995    0.000000
     0.000000    0.000000    4.229473
   V    Fe
  17   3
Direct configuration=    11
   0.22820879  0.50000000  0.50000000
   0.77179121  0.50000000  0.50000000
   0.64911327  0.85473715  0.95715084
   0.64911327  0.14526285  0.04284916
   0.35088673  0.85473715  0.04284916
   0.35088673  0.14526285  0.95715084
   0.50000000  0.31346850  0.50000000
   0.50000000  0.68653150  0.50000000
   0.00000000  0.77171941  0.50000000
   0.00000000  0.22828059  0.50000000
   0.50000000  0.50000000 -0.00000000
   0.00000000  0.87392175 -0.00000000
   0.00000000  0.12607825 -0.00000000
   0.80807284  0.37280050  0.98665811
   0.80807284  0.62719950  0.01334189
   0.19192716  0.37280050  0.01334189
   0.19192716  0.62719950  0.98665811
   0.50000000 -0.00000000  0.50000000
   0.19441951 -0.00000000  0.50000000
   0.80558049 -0.00000000  0.50000000
unknown system                          
           1
     7.128690    0.000000    0.000000
     0.000000    8.884298    0.000000
     0.000000    0.000000    4.244615
   V    Fe
  17   3
Direct configuration=    12
   0.21728991  0.50000000  0.50000000
   0.78271009  0.50000000  0.50000000
   0.65131871  0.85522617  0.96151100
   0.65131871  0.14477383  0.03848900
   0.34868129  0.85522617  0.03848900
   0.34868129  0.14477383  0.96151100
   0.50000000  0.31334359  0.50000000
   0.50000000  0.68665641  0.50000000
   0.00000000  0.76934505  0.50000000
   0.00000000  0.23065495  0.50000000
   0.50000000  0.50000000 -0.00000000
   0.00000000  0.87225426 -0.00000000
   0.00000000  0.12774574 -0.00000000
   0.80896721  0.37008545  0.98842153
   0.80896721  0.62991455  0.01157847
   0.19103279  0.37008545  0.01157847
   0.19103279  0.62991455  0.98842153
   0.50000000 -0.00000000  0.50000000
   0.18483072 -0.00000000  0.50000000
   0.81516928 -0.00000000  0.50000000
unknown system                          
           1
     7.068238    0.000000    0.000000
     0.000000    8.979433    0.000000
     0.000000    0.000000    4.260222
   V    Fe
  17   3
Direct configuration=    13
   0.20594333  0.50000000  0.50000000
   0.79405667  0.50000000  0.50000000
   0.65361053  0.85572496  0.96598894
   0.65361053  0.14427504  0.03401106
   0.34638947  0.85572496  0.03401106
   0.34638947  0.14427504  0.96598894
   0.50000000  0.31321618  0.50000000
   0.50000000  0.68678382  0.50000000
   0.00000000  0.76692324  0.50000000
   0.00000000  0.23307676  0.50000000
   0.50000000  0.50000000 -0.00000000
   0.00000000  0.87055346 -0.00000000
   0.00000000  0.12944654 -0.00000000
   0.80989661  0.36731616  0.99023258
   0.80989661  0.63268384  0.00976742
   0.19010339  0.36731616  0.00976742
   0.19010339  0.63268384  0.99023258
   0.50000000 -0.00000000  0.50000000
   0.17486632 -0.00000000  0.50000000
   0.82513368 -0.00000000  0.50000000
unknown system                          
           1
     6.956355    0.000000    0.000000
     0.000000    8.925022    0.000000
     0.000000    0.000000    4.215033
   V    Fe
  17   3
Direct configuration=    14
   0.19564029  0.50000000  0.50000000
   0.80435971  0.50000000  0.50000000
   0.65880524  0.85790039  0.97177575
   0.65880524  0.14209961  0.02822425
   0.34119476  0.85790039  0.02822425
   0.34119476  0.14209961  0.97177575
   0.50000000  0.31423195  0.50000000
   0.50000000  0.68576805  0.50000000
   0.00000000  0.76762305  0.50000000
   0.00000000  0.23237695  0.50000000
   0.50000000  0.50000000 -0.00000000
   0.00000000  0.87216173 -0.00000000
   0.00000000  0.12783827 -0.00000000
   0.81015068  0.36810058  0.99240941
   0.81015068  0.63189942  0.00759059
   0.18984932  0.36810058  0.00759059
   0.18984932  0.63189942  0.99240941
   0.50000000 -0.00000000  0.50000000
   0.17429771 -0.00000000  0.50000000
   0.82570229 -0.00000000  0.50000000
unknown system                          
           1
     6.974475    0.000000    0.000000
     0.000000    8.933834    0.000000
     0.000000    0.000000    4.222352
   V    Fe
  17   3
Direct configuration=    15
   0.19733571  0.50000000  0.50000000
   0.80266429  0.50000000  0.50000000
   0.65795043  0.85754593  0.97082853
   0.65795043  0.14245407  0.02917147
   0.34204957  0.85754593  0.02917147
   0.34204957  0.14245407  0.97082853
   0.50000000  0.31406644  0.50000000
   0.50000000  0.68593356  0.50000000
   0.00000000  0.76750903  0.50000000
   0.00000000  0.23249097  0.50000000
   0.50000000  0.50000000 -0.00000000
   0.00000000  0.87189968 -0.00000000
   0.00000000  0.12810032 -0.00000000
   0.81010887  0.36797277  0.99205309
   0.81010887  0.63202723  0.00794691
   0.18989113  0.36797277  0.00794691
   0.18989113  0.63202723  0.99205309
   0.50000000 -0.00000000  0.50000000
   0.17439128 -0.00000000  0.50000000
   0.82560872 -0.00000000  0.50000000
unknown system                          
           1
     6.987074    0.000000    0.000000
     0.000000    9.002217    0.000000
     0.000000    0.000000    4.226494
   V    Fe
  17   3
Direct configuration=    16
   0.19206260  0.50000000  0.50000000
   0.80793740  0.50000000  0.50000000
   0.66172821  0.85982074  0.97698649
   0.66172821  0.14017926  0.02301351
   0.33827179  0.85982074  0.02301351
   0.33827179  0.14017926  0.97698649
   0.50000000  0.31455629  0.50000000
   0.50000000  0.68544371  0.50000000
   0.00000000  0.76895175  0.50000000
   0.00000000  0.23104825  0.50000000
   0.50000000  0.50000000 -0.00000000
   0.00000000  0.87419031 -0.00000000
   0.00000000  0.12580969 -0.00000000
   0.80985570  0.36971149  0.99445837
   0.80985570  0.63028851  0.00554163
   0.19014430  0.36971149  0.00554163
   0.19014430  0.63028851  0.99445837
   0.50000000 -0.00000000  0.50000000
   0.18003617 -0.00000000  0.50000000
   0.81996383 -0.00000000  0.50000000
unknown system                          
           1
     6.987223    0.000000    0.000000
     0.000000    9.003030    0.000000
     0.000000    0.000000    4.226543
   V    Fe
  17   3
Direct configuration=    17
   0.19200008  0.50000000  0.50000000
   0.80799992  0.50000000  0.50000000
   0.66177300  0.85984756  0.97705957
   0.66177300  0.14015244  0.02294043
   0.33822700  0.85984756  0.02294043
   0.33822700  0.14015244  0.97705957
   0.50000000  0.31456206  0.50000000
   0.50000000  0.68543794  0.50000000
   0.00000000  0.76896875  0.50000000
   0.00000000  0.23103125  0.50000000
   0.50000000  0.50000000 -0.00000000
   0.00000000  0.87421732 -0.00000000
   0.00000000  0.12578268 -0.00000000
   0.80985270  0.36973199  0.99448691
   0.80985270  0.63026801  0.00551309
   0.19014730  0.36973199  0.00551309
   0.19014730  0.63026801  0.99448691
   0.50000000 -0.00000000  0.50000000
   0.18010310 -0.00000000  0.50000000
   0.81989690 -0.00000000  0.50000000
unknown system                          
           1
     6.988238    0.000000    0.000000
     0.000000    9.015641    0.000000
     0.000000    0.000000    4.218591
   V    Fe
  17   3
Direct configuration=    18
   0.19344896  0.50000000  0.50000000
   0.80655104  0.50000000  0.50000000
   0.66134107  0.86012940  0.98071134
   0.66134107  0.13987060  0.01928866
   0.33865893  0.86012940  0.01928866
   0.33865893  0.13987060  0.98071134
   0.50000000  0.31394749  0.50000000
   0.50000000  0.68605251  0.50000000
   0.00000000  0.77018521  0.50000000
   0.00000000  0.22981479  0.50000000
   0.50000000  0.50000000 -0.00000000
   0.00000000  0.87375784 -0.00000000
   0.00000000  0.12624216 -0.00000000
   0.80966700  0.36915088  0.99594665
   0.80966700  0.63084912  0.00405335
   0.19033300  0.36915088  0.00405335
   0.19033300  0.63084912  0.99594665
   0.50000000 -0.00000000  0.50000000
   0.18207245 -0.00000000  0.50000000
   0.81792755 -0.00000000  0.50000000
unknown system                          
           1
     6.990294    0.000000    0.000000
     0.000000    9.041207    0.000000
     0.000000    0.000000    4.202470
   V    Fe
  17   3
Direct configuration=    19
   0.19638555  0.50000000  0.50000000
   0.80361445  0.50000000  0.50000000
   0.66046565  0.86069990  0.98812774
   0.66046565  0.13930010  0.01187226
   0.33953435  0.86069990  0.01187226
   0.33953435  0.13930010  0.98812774
   0.50000000  0.31270345  0.50000000
   0.50000000  0.68729655  0.50000000
   0.00000000  0.77264762  0.50000000
   0.00000000  0.22735238  0.50000000
   0.50000000  0.50000000 -0.00000000
   0.00000000  0.87282775 -0.00000000
   0.00000000  0.12717225 -0.00000000
   0.80929064  0.36797458  0.99891125
   0.80929064  0.63202542  0.00108875
   0.19070936  0.36797458  0.00108875
   0.19070936  0.63202542  0.99891125
   0.50000000 -0.00000000  0.50000000
   0.18606390 -0.00000000  0.50000000
   0.81393610 -0.00000000  0.50000000
unknown system                          
           1
     6.994296    0.000000    0.000000
     0.000000    9.031753    0.000000
     0.000000    0.000000    4.194321
   V    Fe
  17   3
Direct configuration=    20
   0.19632356  0.50000000  0.50000000
   0.80367644  0.50000000  0.50000000
   0.66055856  0.85997233  0.99367358
   0.66055856  0.14002767  0.00632642
   0.33944144  0.85997233  0.00632642
   0.33944144  0.14002767  0.99367358
   0.50000000  0.31172187  0.50000000
   0.50000000  0.68827813  0.50000000
   0.00000000  0.77446383  0.50000000
   0.00000000  0.22553617  0.50000000
   0.50000000  0.50000000 -0.00000000
   0.00000000  0.87248773 -0.00000000
   0.00000000  0.12751227 -0.00000000
   0.80793015  0.36765143  0.00078883
   0.80793015  0.63234857 -0.00078883
   0.19206985  0.36765143 -0.00078883
   0.19206985  0.63234857  0.00078883
   0.50000000 -0.00000000  0.50000000
   0.18512290 -0.00000000  0.50000000
   0.81487710 -0.00000000  0.50000000
unknown system                          
           1
     6.996677    0.000000    0.000000
     0.000000    9.026130    0.000000
     0.000000    0.000000    4.189473
   V    Fe
  17   3
Direct configuration=    21
   0.19628670  0.50000000  0.50000000
   0.80371330  0.50000000  0.50000000
   0.66061380  0.85953908  0.99697901
   0.66061380  0.14046092  0.00302099
   0.33938620  0.85953908  0.00302099
   0.33938620  0.14046092  0.99697901
   0.50000000  0.31113735  0.50000000
   0.50000000  0.68886265  0.50000000
   0.00000000  0.77554537  0.50000000
   0.00000000  0.22445463  0.50000000
   0.50000000  0.50000000 -0.00000000
   0.00000000  0.87228526 -0.00000000
   0.00000000  0.12771474 -0.00000000
   0.80712131  0.36745899  0.00190790
   0.80712131  0.63254101 -0.00190790
   0.19287869  0.36745899 -0.00190790
   0.19287869  0.63254101  0.00190790
   0.50000000 -0.00000000  0.50000000
   0.18456346 -0.00000000  0.50000000
   0.81543654 -0.00000000  0.50000000
unknown system                          
           1
     7.023342    0.000000    0.000000
     0.000000    9.042410    0.000000
     0.000000    0.000000    4.206635
   V    Fe
  17   3
Direct configuration=    22
   0.19460229  0.50000000  0.50000000
   0.80539771  0.50000000  0.50000000
   0.66070296  0.85926335  0.99955725
   0.66070296  0.14073665  0.00044275
   0.33929704  0.85926335  0.00044275
   0.33929704  0.14073665  0.99955725
   0.50000000  0.31061719  0.50000000
   0.50000000  0.68938281  0.50000000
   0.00000000  0.77555217  0.50000000
   0.00000000  0.22444783  0.50000000
   0.50000000  0.50000000 -0.00000000
   0.00000000  0.87215094 -0.00000000
   0.00000000  0.12784906 -0.00000000
   0.80618748  0.36790437  0.00230297
   0.80618748  0.63209563 -0.00230297
   0.19381252  0.36790437 -0.00230297
   0.19381252  0.63209563  0.00230297
   0.50000000 -0.00000000  0.50000000
   0.18374781 -0.00000000  0.50000000
   0.81625219 -0.00000000  0.50000000
unknown system                          
           1
     7.010785    0.000000    0.000000
     0.000000    9.034744    0.000000
     0.000000    0.000000    4.198554
   V    Fe
  17   3
Direct configuration=    23
   0.19539245  0.50000000  0.50000000
   0.80460755  0.50000000  0.50000000
   0.66066114  0.85939295  0.99834813
   0.66066114  0.14060705  0.00165187
   0.33933886  0.85939295  0.00165187
   0.33933886  0.14060705  0.99834813
   0.50000000  0.31086169  0.50000000
   0.50000000  0.68913831  0.50000000
   0.00000000  0.77554897  0.50000000
   0.00000000  0.22445103  0.50000000
   0.50000000  0.50000000 -0.00000000
   0.00000000  0.87221408 -0.00000000
   0.00000000  0.12778592 -0.00000000
   0.80662554  0.36769502  0.00211769
   0.80662554  0.63230498 -0.00211769
   0.19337446  0.36769502 -0.00211769
   0.19337446  0.63230498  0.00211769
   0.50000000 -0.00000000  0.50000000
   0.18413044 -0.00000000  0.50000000
   0.81586956 -0.00000000  0.50000000
unknown system                          
           1
     7.007242    0.000000    0.000000
     0.000000    9.016742    0.000000
     0.000000    0.000000    4.201573
   V    Fe
  17   3
Direct configuration=    24
   0.19426555  0.50000000  0.50000000
   0.80573445  0.50000000  0.50000000
   0.66069760  0.85953544  0.99913173
   0.66069760  0.14046456  0.00086827
   0.33930240  0.85953544  0.00086827
   0.33930240  0.14046456  0.99913173
   0.50000000  0.31065589  0.50000000
   0.50000000  0.68934411  0.50000000
   0.00000000  0.77513300  0.50000000
   0.00000000  0.22486700  0.50000000
   0.50000000  0.50000000 -0.00000000
   0.00000000  0.87203135 -0.00000000
   0.00000000  0.12796865 -0.00000000
   0.80637033  0.36803107  0.00188572
   0.80637033  0.63196893 -0.00188572
   0.19362967  0.36803107 -0.00188572
   0.19362967  0.63196893  0.00188572
   0.50000000 -0.00000000  0.50000000
   0.18385903 -0.00000000  0.50000000
   0.81614097 -0.00000000  0.50000000
unknown system                          
           1
     7.007071    0.000000    0.000000
     0.000000    9.015875    0.000000
     0.000000    0.000000    4.201718
   V    Fe
  17   3
Direct configuration=    25
   0.19421123  0.50000000  0.50000000
   0.80578877  0.50000000  0.50000000
   0.66069936  0.85954232  0.99916946
   0.66069936  0.14045768  0.00083054
   0.33930064  0.85954232  0.00083054
   0.33930064  0.14045768  0.99916946
   0.50000000  0.31064595  0.50000000
   0.50000000  0.68935405  0.50000000
   0.00000000  0.77511292  0.50000000
   0.00000000  0.22488708  0.50000000
   0.50000000  0.50000000 -0.00000000
   0.00000000  0.87202253 -0.00000000
   0.00000000  0.12797747 -0.00000000
   0.80635802  0.36804729  0.00187455
   0.80635802  0.63195271 -0.00187455
   0.19364198  0.36804729 -0.00187455
   0.19364198  0.63195271  0.00187455
   0.50000000 -0.00000000  0.50000000
   0.18384595 -0.00000000  0.50000000
   0.81615405 -0.00000000  0.50000000
unknown system                          
           1
     7.006730    0.000000    0.000000
     0.000000    9.014140    0.000000
     0.000000    0.000000    4.202009
   V    Fe
  17   3
Direct configuration=    26
   0.19410259  0.50000000  0.50000000
   0.80589741  0.50000000  0.50000000
   0.66070288  0.85955607  0.99924490
   0.66070288  0.14044393  0.00075510
   0.33929712  0.85955607  0.00075510
   0.33929712  0.14044393  0.99924490
   0.50000000  0.31062608  0.50000000
   0.50000000  0.68937392  0.50000000
   0.00000000  0.77507276  0.50000000
   0.00000000  0.22492724  0.50000000
   0.50000000  0.50000000 -0.00000000
   0.00000000  0.87200489 -0.00000000
   0.00000000  0.12799511 -0.00000000
   0.80633342  0.36807974  0.00185222
   0.80633342  0.63192026 -0.00185222
   0.19366658  0.36807974 -0.00185222
   0.19366658  0.63192026  0.00185222
   0.50000000 -0.00000000  0.50000000
   0.18381979 -0.00000000  0.50000000
   0.81618021 -0.00000000  0.50000000
unknown system                          
           1
     7.006949    0.000000    0.000000
     0.000000    9.015253    0.000000
     0.000000    0.000000    4.201822
   V    Fe
  17   3
Direct configuration=    27
   0.19417227  0.50000000  0.50000000
   0.80582773  0.50000000  0.50000000
   0.66070062  0.85954725  0.99919652
   0.66070062  0.14045275  0.00080348
   0.33929938  0.85954725  0.00080348
   0.33929938  0.14045275  0.99919652
   0.50000000  0.31063883  0.50000000
   0.50000000  0.68936117  0.50000000
   0.00000000  0.77509852  0.50000000
   0.00000000  0.22490148  0.50000000
   0.50000000  0.50000000 -0.00000000
   0.00000000  0.87201620 -0.00000000
   0.00000000  0.12798380 -0.00000000
   0.80634920  0.36805892  0.00186654
   0.80634920  0.63194108 -0.00186654
   0.19365080  0.36805892 -0.00186654
   0.19365080  0.63194108  0.00186654
   0.50000000 -0.00000000  0.50000000
   0.18383657 -0.00000000  0.50000000
   0.81616343 -0.00000000  0.50000000
unknown system                          
           1
     7.007852    0.000000    0.000000
     0.000000    9.014642    0.000000
     0.000000    0.000000    4.206232
   V    Fe
  17   3
Direct configuration=    28
   0.19403528  0.50000000  0.50000000
   0.80596472  0.50000000  0.50000000
   0.66075135  0.85973066  0.99952401
   0.66075135  0.14026934  0.00047599
   0.33924865  0.85973066  0.00047599
   0.33924865  0.14026934  0.99952401
   0.50000000  0.31043428  0.50000000
   0.50000000  0.68956572  0.50000000
   0.00000000  0.77473922  0.50000000
   0.00000000  0.22526078  0.50000000
   0.50000000  0.50000000 -0.00000000
   0.00000000  0.87185792 -0.00000000
   0.00000000  0.12814208 -0.00000000
   0.80645876  0.36803957  0.00149939
   0.80645876  0.63196043 -0.00149939
   0.19354124  0.36803957 -0.00149939
   0.19354124  0.63196043  0.00149939
   0.50000000 -0.00000000  0.50000000
   0.18375828 -0.00000000  0.50000000
   0.81624172 -0.00000000  0.50000000
unknown system                          
           1
     7.007860    0.000000    0.000000
     0.000000    9.014637    0.000000
     0.000000    0.000000    4.206272
   V    Fe
  17   3
Direct configuration=    29
   0.19403403  0.50000000  0.50000000
   0.80596597  0.50000000  0.50000000
   0.66075182  0.85973233  0.99952700
   0.66075182  0.14026767  0.00047300
   0.33924818  0.85973233  0.00047300
   0.33924818  0.14026767  0.99952700
   0.50000000  0.31043241  0.50000000
   0.50000000  0.68956759  0.50000000
   0.00000000  0.77473594  0.50000000
   0.00000000  0.22526406  0.50000000
   0.50000000  0.50000000 -0.00000000
   0.00000000  0.87185647 -0.00000000
   0.00000000  0.12814353 -0.00000000
   0.80645976  0.36803939  0.00149604
   0.80645976  0.63196061 -0.00149604
   0.19354024  0.36803939 -0.00149604
   0.19354024  0.63196061  0.00149604
   0.50000000 -0.00000000  0.50000000
   0.18375756 -0.00000000  0.50000000
   0.81624244 -0.00000000  0.50000000
unknown system                          
           1
     7.003969    0.000000    0.000000
     0.000000    9.008880    0.000000
     0.000000    0.000000    4.206746
   V    Fe
  17   3
Direct configuration=    30
   0.19426158  0.50000000  0.50000000
   0.80573842  0.50000000  0.50000000
   0.66084378  0.85989844  0.99978488
   0.66084378  0.14010156  0.00021512
   0.33915622  0.85989844  0.00021512
   0.33915622  0.14010156  0.99978488
   0.50000000  0.31020303  0.50000000
   0.50000000  0.68979697  0.50000000
   0.00000000  0.77445009  0.50000000
   0.00000000  0.22554991  0.50000000
   0.50000000  0.50000000 -0.00000000
   0.00000000  0.87184976 -0.00000000
   0.00000000  0.12815024 -0.00000000
   0.80657427  0.36799106  0.00101606
   0.80657427  0.63200894 -0.00101606
   0.19342573  0.36799106 -0.00101606
   0.19342573  0.63200894  0.00101606
   0.50000000 -0.00000000  0.50000000
   0.18365118 -0.00000000  0.50000000
   0.81634882 -0.00000000  0.50000000
unknown system                          
           1
     7.004484    0.000000    0.000000
     0.000000    9.009642    0.000000
     0.000000    0.000000    4.206684
   V    Fe
  17   3
Direct configuration=    31
   0.19423143  0.50000000  0.50000000
   0.80576857  0.50000000  0.50000000
   0.66083159  0.85987642  0.99975073
   0.66083159  0.14012358  0.00024927
   0.33916841  0.85987642  0.00024927
   0.33916841  0.14012358  0.99975073
   0.50000000  0.31023343  0.50000000
   0.50000000  0.68976657  0.50000000
   0.00000000  0.77448797  0.50000000
   0.00000000  0.22551203  0.50000000
   0.50000000  0.50000000 -0.00000000
   0.00000000  0.87185065 -0.00000000
   0.00000000  0.12814935 -0.00000000