  20  20   0   0
  0.1295360E+02  0.6365306E-09  0.9702359E-09  0.4264655E-09  0.5000000E-15
  1.000000000000000E-004
  CAR 
 unknown system                          
      8.93100958     -1.40520164  301      6.55585331      1.00000000
     -1.405  0.0000E+00  0.0000E+00
     -1.371  0.0000E+00  0.0000E+00
     -1.336  0.0000E+00  0.0000E+00
     -1.302  0.0000E+00  0.0000E+00
     -1.267  0.0000E+00  0.0000E+00
     -1.233  0.0000E+00  0.0000E+00
     -1.198  0.0000E+00  0.0000E+00
     -1.164  0.0000E+00  0.0000E+00
     -1.130  0.0000E+00  0.0000E+00
     -1.095  0.0000E+00  0.0000E+00
     -1.061  0.0000E+00  0.0000E+00
     -1.026  0.0000E+00  0.0000E+00
     -0.992  0.5371E-18  0.1850E-19
     -0.957  0.2739E-16  0.9622E-18
     -0.923  0.1166E-14  0.4115E-16
     -0.888  0.3894E-13  0.1383E-14
     -0.854  0.1028E-11  0.3681E-13
     -0.819  0.2148E-10  0.7769E-12
     -0.785  0.3550E-09  0.1301E-10
     -0.751  0.4643E-08  0.1730E-09
     -0.716  0.4806E-07  0.1829E-08
     -0.682  0.3937E-06  0.1539E-07
     -0.647  0.2554E-05  0.1034E-06
     -0.613  0.1312E-04  0.5554E-06
     -0.578  0.5336E-04  0.2394E-05
     -0.544  0.1719E-03  0.8317E-05
     -0.509  0.4388E-03  0.2343E-04
     -0.475  0.8871E-03  0.5400E-04
     -0.440  0.1421E-02  0.1030E-03
     -0.406  0.1804E-02  0.1651E-03
     -0.372  0.1814E-02  0.2276E-03
     -0.337  0.1445E-02  0.2774E-03
     -0.303  0.9124E-03  0.3088E-03
     -0.268  0.4564E-03  0.3245E-03
     -0.234  0.1810E-03  0.3308E-03
     -0.199  0.5813E-04  0.3328E-03
     -0.165  0.2195E-04  0.3335E-03
     -0.130  0.3880E-04  0.3349E-03
     -0.096  0.1328E-03  0.3395E-03
     -0.061  0.3903E-03  0.3529E-03
     -0.027  0.9251E-03  0.3848E-03
      0.007  0.1768E-02  0.4457E-03
      0.042  0.2732E-02  0.5398E-03
      0.076  0.3421E-02  0.6577E-03
      0.111  0.3473E-02  0.7774E-03
      0.145  0.2860E-02  0.8759E-03
      0.180  0.1909E-02  0.9417E-03
      0.214  0.1031E-02  0.9772E-03
      0.249  0.4501E-03  0.9927E-03
      0.283  0.1653E-03  0.9984E-03
      0.318  0.7976E-04  0.1001E-02
      0.352  0.1331E-03  0.1006E-02
      0.386  0.3397E-03  0.1017E-02
      0.421  0.7351E-03  0.1043E-02
      0.455  0.1271E-02  0.1087E-02
      0.490  0.1767E-02  0.1147E-02
      0.524  0.2040E-02  0.1218E-02
      0.559  0.2144E-02  0.1292E-02
      0.593  0.2420E-02  0.1375E-02
      0.628  0.3184E-02  0.1485E-02
      0.662  0.4321E-02  0.1634E-02
      0.696  0.5264E-02  0.1815E-02
      0.731  0.5473E-02  0.2003E-02
      0.765  0.4952E-02  0.2174E-02
      0.800  0.4231E-02  0.2320E-02
      0.834  0.3830E-02  0.2452E-02
      0.869  0.3801E-02  0.2583E-02
      0.903  0.3797E-02  0.2714E-02
      0.938  0.3554E-02  0.2836E-02
      0.972  0.3250E-02  0.2948E-02
      1.007  0.3396E-02  0.3065E-02
      1.041  0.4335E-02  0.3214E-02
      1.075  0.5790E-02  0.3414E-02
      1.110  0.6922E-02  0.3652E-02
      1.144  0.6939E-02  0.3891E-02
      1.179  0.5752E-02  0.4090E-02
      1.213  0.4053E-02  0.4229E-02
      1.248  0.2798E-02  0.4326E-02
      1.282  0.2645E-02  0.4417E-02
      1.317  0.3717E-02  0.4545E-02
      1.351  0.5627E-02  0.4739E-02
      1.386  0.7613E-02  0.5001E-02
      1.420  0.8832E-02  0.5305E-02
      1.454  0.8806E-02  0.5609E-02
      1.489  0.7717E-02  0.5875E-02
      1.523  0.6267E-02  0.6091E-02
      1.558  0.5230E-02  0.6271E-02
      1.592  0.5040E-02  0.6444E-02
      1.627  0.5631E-02  0.6638E-02
      1.661  0.6548E-02  0.6864E-02
      1.696  0.7289E-02  0.7115E-02
      1.730  0.7617E-02  0.7378E-02
      1.765  0.7607E-02  0.7640E-02
      1.799  0.7494E-02  0.7898E-02
      1.833  0.7420E-02  0.8154E-02
      1.868  0.7209E-02  0.8402E-02
      1.902  0.6472E-02  0.8625E-02
      1.937  0.5089E-02  0.8800E-02
      1.971  0.3530E-02  0.8922E-02
      2.006  0.2592E-02  0.9011E-02
      2.040  0.2887E-02  0.9111E-02
      2.075  0.4537E-02  0.9267E-02
      2.109  0.7102E-02  0.9512E-02
      2.144  0.9691E-02  0.9846E-02
      2.178  0.1139E-01  0.1024E-01
      2.212  0.1186E-01  0.1065E-01
      2.247  0.1147E-01  0.1104E-01
      2.281  0.1068E-01  0.1141E-01
      2.316  0.9524E-02  0.1174E-01
      2.350  0.7855E-02  0.1201E-01
      2.385  0.6002E-02  0.1222E-01
      2.419  0.4672E-02  0.1238E-01
      2.454  0.4211E-02  0.1252E-01
      2.488  0.4281E-02  0.1267E-01
      2.523  0.4384E-02  0.1282E-01
      2.557  0.4568E-02  0.1298E-01
      2.591  0.5393E-02  0.1316E-01
      2.626  0.7171E-02  0.1341E-01
      2.660  0.9353E-02  0.1373E-01
      2.695  0.1084E-01  0.1411E-01
      2.729  0.1102E-01  0.1449E-01
      2.764  0.1036E-01  0.1484E-01
      2.798  0.1008E-01  0.1519E-01
      2.833  0.1107E-01  0.1557E-01
      2.867  0.1338E-01  0.1603E-01
      2.902  0.1655E-01  0.1660E-01
      2.936  0.2005E-01  0.1729E-01
      2.970  0.2347E-01  0.1810E-01
      3.005  0.2651E-01  0.1902E-01
      3.039  0.2913E-01  0.2002E-01
      3.074  0.3152E-01  0.2111E-01
      3.108  0.3365E-01  0.2226E-01
      3.143  0.3486E-01  0.2347E-01
      3.177  0.3447E-01  0.2465E-01
      3.212  0.3280E-01  0.2578E-01
      3.246  0.3131E-01  0.2686E-01
      3.281  0.3134E-01  0.2794E-01
      3.315  0.3304E-01  0.2908E-01
      3.349  0.3567E-01  0.3031E-01
      3.384  0.3847E-01  0.3163E-01
      3.418  0.4109E-01  0.3305E-01
      3.453  0.4328E-01  0.3454E-01
      3.487  0.4464E-01  0.3608E-01
      3.522  0.4491E-01  0.3763E-01
      3.556  0.4449E-01  0.3916E-01
      3.591  0.4450E-01  0.4069E-01
      3.625  0.4561E-01  0.4226E-01
      3.660  0.4749E-01  0.4390E-01
      3.694  0.4964E-01  0.4561E-01
      3.728  0.5240E-01  0.4742E-01
      3.763  0.5632E-01  0.4936E-01
      3.797  0.6110E-01  0.5146E-01
      3.832  0.6548E-01  0.5372E-01
      3.866  0.6819E-01  0.5607E-01
      3.901  0.6881E-01  0.5844E-01
      3.935  0.6827E-01  0.6079E-01
      3.970  0.6843E-01  0.6315E-01
      4.004  0.7044E-01  0.6558E-01
      4.039  0.7323E-01  0.6810E-01
      4.073  0.7404E-01  0.7065E-01
      4.107  0.7069E-01  0.7309E-01
      4.142  0.6344E-01  0.7527E-01
      4.176  0.5441E-01  0.7715E-01
      4.211  0.4564E-01  0.7872E-01
      4.245  0.3805E-01  0.8003E-01
      4.280  0.3207E-01  0.8113E-01
      4.314  0.2815E-01  0.8210E-01
      4.349  0.2618E-01  0.8301E-01
      4.383  0.2520E-01  0.8387E-01
      4.418  0.2410E-01  0.8470E-01
      4.452  0.2301E-01  0.8550E-01
      4.486  0.2335E-01  0.8630E-01
      4.521  0.2666E-01  0.8722E-01
      4.555  0.3342E-01  0.8837E-01
      4.590  0.4280E-01  0.8985E-01
      4.624  0.5265E-01  0.9166E-01
      4.659  0.6009E-01  0.9373E-01
      4.693  0.6324E-01  0.9591E-01
      4.728  0.6308E-01  0.9808E-01
      4.762  0.6285E-01  0.1002E+00
      4.797  0.6516E-01  0.1025E+00
      4.831  0.6988E-01  0.1049E+00
      4.865  0.7467E-01  0.1075E+00
      4.900  0.7701E-01  0.1101E+00
      4.934  0.7547E-01  0.1127E+00
      4.969  0.7016E-01  0.1151E+00
      5.003  0.6299E-01  0.1173E+00
      5.038  0.5694E-01  0.1193E+00
      5.072  0.5412E-01  0.1211E+00
      5.107  0.5434E-01  0.1230E+00
      5.141  0.5604E-01  0.1249E+00
      5.176  0.5821E-01  0.1269E+00
      5.210  0.6085E-01  0.1290E+00
      5.244  0.6397E-01  0.1312E+00
      5.279  0.6694E-01  0.1336E+00
      5.313  0.6892E-01  0.1359E+00
      5.348  0.6959E-01  0.1383E+00
      5.382  0.6925E-01  0.1407E+00
      5.417  0.6856E-01  0.1431E+00
      5.451  0.6810E-01  0.1454E+00
      5.486  0.6826E-01  0.1478E+00
      5.520  0.6941E-01  0.1502E+00
      5.555  0.7167E-01  0.1526E+00
      5.589  0.7424E-01  0.1552E+00
      5.623  0.7544E-01  0.1578E+00
      5.658  0.7403E-01  0.1603E+00
      5.692  0.7029E-01  0.1628E+00
      5.727  0.6567E-01  0.1650E+00
      5.761  0.6175E-01  0.1672E+00
      5.796  0.5965E-01  0.1692E+00
      5.830  0.5965E-01  0.1713E+00
      5.865  0.6123E-01  0.1734E+00
      5.899  0.6343E-01  0.1756E+00
      5.934  0.6563E-01  0.1778E+00
      5.968  0.6775E-01  0.1802E+00
      6.002  0.6977E-01  0.1826E+00
      6.037  0.7133E-01  0.1850E+00
      6.071  0.7208E-01  0.1875E+00
      6.106  0.7228E-01  0.1900E+00
      6.140  0.7273E-01  0.1925E+00
      6.175  0.7363E-01  0.1950E+00
      6.209  0.7401E-01  0.1976E+00
      6.244  0.7264E-01  0.2001E+00
      6.278  0.6949E-01  0.2025E+00
      6.313  0.6580E-01  0.2047E+00
      6.347  0.6271E-01  0.2069E+00
      6.381  0.6011E-01  0.2090E+00
      6.416  0.5722E-01  0.2110E+00
      6.450  0.5403E-01  0.2128E+00
      6.485  0.5137E-01  0.2146E+00
      6.519  0.4938E-01  0.2163E+00
      6.554  0.4695E-01  0.2179E+00
      6.588  0.4328E-01  0.2194E+00
      6.623  0.3916E-01  0.2207E+00
      6.657  0.3596E-01  0.2220E+00
      6.691  0.3373E-01  0.2231E+00
      6.726  0.3123E-01  0.2242E+00
      6.760  0.2745E-01  0.2252E+00
      6.795  0.2273E-01  0.2259E+00
      6.829  0.1834E-01  0.2266E+00
      6.864  0.1548E-01  0.2271E+00
      6.898  0.1466E-01  0.2276E+00
      6.933  0.1576E-01  0.2282E+00
      6.967  0.1838E-01  0.2288E+00
      7.002  0.2216E-01  0.2296E+00
      7.036  0.2668E-01  0.2305E+00
      7.070  0.3110E-01  0.2315E+00
      7.105  0.3421E-01  0.2327E+00
      7.139  0.3526E-01  0.2339E+00
      7.174  0.3475E-01  0.2351E+00
      7.208  0.3431E-01  0.2363E+00
      7.243  0.3581E-01  0.2376E+00
      7.277  0.4036E-01  0.2389E+00
      7.312  0.4772E-01  0.2406E+00
      7.346  0.5649E-01  0.2425E+00
      7.381  0.6496E-01  0.2448E+00
      7.415  0.7168E-01  0.2472E+00
      7.449  0.7553E-01  0.2498E+00
      7.484  0.7584E-01  0.2525E+00
      7.518  0.7287E-01  0.2550E+00
      7.553  0.6775E-01  0.2573E+00
      7.587  0.6189E-01  0.2594E+00
      7.622  0.5651E-01  0.2614E+00
      7.656  0.5240E-01  0.2632E+00
      7.691  0.4941E-01  0.2649E+00
      7.725  0.4624E-01  0.2665E+00
      7.760  0.4130E-01  0.2679E+00
      7.794  0.3419E-01  0.2691E+00
      7.828  0.2619E-01  0.2700E+00
      7.863  0.1909E-01  0.2706E+00
      7.897  0.1383E-01  0.2711E+00
      7.932  0.1009E-01  0.2715E+00
      7.966  0.7060E-02  0.2717E+00
      8.001  0.4421E-02  0.2719E+00
      8.035  0.2347E-02  0.2719E+00
      8.070  0.1025E-02  0.2720E+00
      8.104  0.3628E-03  0.2720E+00
      8.139  0.1032E-03  0.2720E+00
      8.173  0.2353E-04  0.2720E+00
      8.207  0.4283E-05  0.2720E+00
      8.242  0.6221E-06  0.2720E+00
      8.276  0.7200E-07  0.2720E+00
      8.311  0.6634E-08  0.2720E+00
      8.345  0.4862E-09  0.2720E+00
      8.380  0.2833E-10  0.2720E+00
      8.414  0.1311E-11  0.2720E+00
      8.449  0.4820E-13  0.2720E+00
      8.483  0.1407E-14  0.2720E+00
      8.518  0.3222E-16  0.2720E+00
      8.552  0.0000E+00  0.2720E+00
      8.586  0.0000E+00  0.2720E+00
      8.621  0.0000E+00  0.2720E+00
      8.655  0.0000E+00  0.2720E+00
      8.690  0.0000E+00  0.2720E+00
      8.724  0.0000E+00  0.2720E+00
      8.759  0.0000E+00  0.2720E+00
      8.793  0.0000E+00  0.2720E+00
      8.828  0.0000E+00  0.2720E+00
      8.862  0.0000E+00  0.2720E+00
      8.897  0.0000E+00  0.2720E+00
      8.931  0.0000E+00  0.2720E+00
