   20   20  500    1
  0.1295360E+02  0.6365306E-09  0.9702359E-09  0.4264655E-09  0.5000000E-15
  1.000000000000000E-004
  CAR 
 unknown system                          
    109      8     68
 
  0.0000000E+00  0.0000000E+00  0.0000000E+00  0.8333333E-01
    1       -0.405202   1.000000
    2        1.349182   1.000000
    3        1.397204   1.000000
    4        2.851284   1.000000
    5        3.033782   1.000000
    6        3.117643   1.000000
    7        3.152714   1.000000
    8        3.209653   1.000000
    9        3.514512   1.000000
   10        3.582324   1.000000
   11        3.787810   1.000000
   12        3.857511   1.000000
   13        3.901582   1.000000
   14        3.907779   1.000000
   15        4.015103   1.000000
   16        4.070900   1.000000
   17        4.151071   1.000000
   18        4.188756   1.000000
   19        4.205948   1.000000
   20        4.249051   1.000000
   21        4.321512   1.000000
   22        4.418795   1.000000
   23        4.499784   1.000000
   24        4.579217   1.000000
   25        4.679494   1.000000
   26        4.694213   1.000000
   27        4.703377   1.000000
   28        4.762305   1.000000
   29        4.783628   1.000000
   30        4.790929   1.000000
   31        4.833678   1.000000
   32        4.838455   1.000000
   33        5.056550   1.000000
   34        5.058095   1.000000
   35        5.097650   1.000000
   36        5.124090   1.000000
   37        5.337584   1.000000
   38        5.448617   1.000000
   39        5.452049   1.000000
   40        5.487072   1.000000
   41        5.590721   1.000000
   42        5.686240   1.000000
   43        5.785946   1.000000
   44        5.918640   1.000000
   45        5.924120   1.000000
   46        5.946689   1.000000
   47        6.067211   1.000000
   48        6.264271   0.999981
   49        6.385986   0.991854
   50        6.412908   0.978389
   51        6.414141   0.977471
   52        6.524449   0.671523
   53        6.556209   0.497991
   54        6.563832   0.455078
   55        6.611779   0.214501
   56        6.668797   0.055104
   57        6.842905   0.000025
   58        6.904470   0.000000
   59        7.093970   0.000000
   60        7.122871   0.000000
   61        7.388394   0.000000
   62        7.408092   0.000000
   63        7.420573   0.000000
   64        7.464423   0.000000
   65        7.554710   0.000000
   66        7.679637   0.000000
   67        7.714345   0.000000
   68        7.752405   0.000000
 
  0.5000000E+00  0.1087052E-16  0.2767339E-20  0.8333333E-01
    1        0.501145   1.000000
    2        0.916940   1.000000
    3        1.701405   1.000000
    4        1.886181   1.000000
    5        2.648481   1.000000
    6        2.685431   1.000000
    7        2.981645   1.000000
    8        3.076831   1.000000
    9        3.107766   1.000000
   10        3.552754   1.000000
   11        3.767565   1.000000
   12        3.820349   1.000000
   13        3.868626   1.000000
   14        4.002570   1.000000
   15        4.037870   1.000000
   16        4.047775   1.000000
   17        4.109471   1.000000
   18        4.203315   1.000000
   19        4.216387   1.000000
   20        4.285579   1.000000
   21        4.329339   1.000000
   22        4.499446   1.000000
   23        4.527890   1.000000
   24        4.567665   1.000000
   25        4.571846   1.000000
   26        4.668077   1.000000
   27        4.947572   1.000000
   28        4.977758   1.000000
   29        5.016971   1.000000
   30        5.089511   1.000000
   31        5.102974   1.000000
   32        5.123789   1.000000
   33        5.155667   1.000000
   34        5.290202   1.000000
   35        5.300699   1.000000
   36        5.360111   1.000000
   37        5.509688   1.000000
   38        5.570416   1.000000
   39        5.670289   1.000000
   40        5.690417   1.000000
   41        5.702845   1.000000
   42        5.713265   1.000000
   43        5.721991   1.000000
   44        5.836188   1.000000
   45        5.860693   1.000000
   46        5.861586   1.000000
   47        5.898481   1.000000
   48        5.961603   1.000000
   49        5.981772   1.000000
   50        6.024605   1.000000
   51        6.091151   1.000000
   52        6.207359   1.000000
   53        6.289851   0.999916
   54        6.305005   0.999806
   55        6.385091   0.992131
   56        6.497712   0.794532
   57        7.215894   0.000000
   58        7.222893   0.000000
   59        7.311491   0.000000
   60        7.325583   0.000000
   61        7.338332   0.000000
   62        7.395090   0.000000
   63        7.561155   0.000000
   64        7.700763   0.000000
   65        7.810118   0.000000
   66        7.908780   0.000000
   67        7.910662   0.000000
   68        7.931010   0.000000
 
  0.0000000E+00  0.5000000E+00  0.2498588E-19  0.8333333E-01
    1        0.056085   1.000000
    2        0.101580   1.000000
    3        2.660401   1.000000
    4        2.682084   1.000000
    5        2.968571   1.000000
    6        3.042186   1.000000
    7        3.319839   1.000000
    8        3.368880   1.000000
    9        3.638224   1.000000
   10        3.678876   1.000000
   11        3.716005   1.000000
   12        3.731487   1.000000
   13        3.786154   1.000000
   14        3.837198   1.000000
   15        3.934565   1.000000
   16        4.041171   1.000000
   17        4.046120   1.000000
   18        4.068313   1.000000
   19        4.107757   1.000000
   20        4.125084   1.000000
   21        4.390490   1.000000
   22        4.499100   1.000000
   23        4.533763   1.000000
   24        4.567795   1.000000
   25        4.633517   1.000000
   26        4.681292   1.000000
   27        4.683630   1.000000
   28        4.687919   1.000000
   29        4.789193   1.000000
   30        4.790905   1.000000
   31        4.796446   1.000000
   32        4.864187   1.000000
   33        5.057489   1.000000
   34        5.184972   1.000000
   35        5.286780   1.000000
   36        5.326759   1.000000
   37        5.398382   1.000000
   38        5.458573   1.000000
   39        5.467611   1.000000
   40        5.510574   1.000000
   41        5.516400   1.000000
   42        5.543296   1.000000
   43        5.598113   1.000000
   44        5.624180   1.000000
   45        5.728254   1.000000
   46        5.932348   1.000000
   47        6.207122   1.000000
   48        6.320146   0.999571
   49        6.348374   0.998328
   50        6.349303   0.998256
   51        6.406361   0.982748
   52        6.516423   0.711451
   53        6.601139   0.260943
   54        6.715337   0.012053
   55        6.826080   0.000066
   56        6.842277   0.000026
   57        6.987994   0.000000
   58        7.104867   0.000000
   59        7.173348   0.000000
   60        7.197548   0.000000
   61        7.264480   0.000000
   62        7.319742   0.000000
   63        7.342998   0.000000
   64        7.382008   0.000000
   65        7.409108   0.000000
   66        7.583850   0.000000
   67        7.617852   0.000000
   68        7.868311   0.000000
 
  0.5000000E+00  0.5000000E+00  0.6575794E-20  0.8333333E-01
    1        0.734023   1.000000
    2        0.862407   1.000000
    3        1.401177   1.000000
    4        1.521374   1.000000
    5        2.987960   1.000000
    6        3.199748   1.000000
    7        3.284966   1.000000
    8        3.341367   1.000000
    9        3.343446   1.000000
   10        3.369442   1.000000
   11        3.389901   1.000000
   12        3.400137   1.000000
   13        3.693627   1.000000
   14        3.738968   1.000000
   15        3.773204   1.000000
   16        3.778286   1.000000
   17        4.170212   1.000000
   18        4.277381   1.000000
   19        4.407504   1.000000
   20        4.560856   1.000000
   21        4.598763   1.000000
   22        4.629905   1.000000
   23        4.640382   1.000000
   24        4.661404   1.000000
   25        4.669942   1.000000
   26        4.762424   1.000000
   27        4.838382   1.000000
   28        4.860930   1.000000
   29        4.985407   1.000000
   30        5.001207   1.000000
   31        5.101372   1.000000
   32        5.145244   1.000000
   33        5.276542   1.000000
   34        5.302966   1.000000
   35        5.308779   1.000000
   36        5.320928   1.000000
   37        5.376149   1.000000
   38        5.433954   1.000000
   39        5.459188   1.000000
   40        5.506286   1.000000
   41        5.545563   1.000000
   42        5.639917   1.000000
   43        5.671843   1.000000
   44        5.748025   1.000000
   45        5.825001   1.000000
   46        5.915945   1.000000
   47        6.011272   1.000000
   48        6.013267   1.000000
   49        6.041186   1.000000
   50        6.050159   1.000000
   51        6.262921   0.999983
   52        6.284508   0.999938
   53        6.372413   0.995260
   54        6.385947   0.991866
   55        6.536949   0.605400
   56        6.974222   0.000000
   57        7.185502   0.000000
   58        7.213625   0.000000
   59        7.272880   0.000000
   60        7.338852   0.000000
   61        7.376283   0.000000
   62        7.407407   0.000000
   63        7.442287   0.000000
   64        7.536860   0.000000
   65        7.581221   0.000000
   66        7.582931   0.000000
   67        7.627019   0.000000
   68        7.770059   0.000000
 
  0.0000000E+00  0.0000000E+00  0.3333333E+00  0.1666667E+00
    1        0.684071   1.000000
    2        2.118457   1.000000
    3        2.183503   1.000000
    4        2.721194   1.000000
    5        3.114018   1.000000
    6        3.164647   1.000000
    7        3.431108   1.000000
    8        3.495207   1.000000
    9        3.578722   1.000000
   10        3.648938   1.000000
   11        3.667707   1.000000
   12        3.781805   1.000000
   13        3.815553   1.000000
   14        3.869484   1.000000
   15        3.875567   1.000000
   16        3.925226   1.000000
   17        3.990032   1.000000
   18        4.045517   1.000000
   19        4.046301   1.000000
   20        4.089918   1.000000
   21        4.205996   1.000000
   22        4.385315   1.000000
   23        4.653007   1.000000
   24        4.707686   1.000000
   25        4.758398   1.000000
   26        4.817060   1.000000
   27        4.870494   1.000000
   28        4.897107   1.000000
   29        4.945060   1.000000
   30        5.095010   1.000000
   31        5.095751   1.000000
   32        5.151155   1.000000
   33        5.165259   1.000000
   34        5.238514   1.000000
   35        5.252513   1.000000
   36        5.356199   1.000000
   37        5.397829   1.000000
   38        5.489935   1.000000
   39        5.536304   1.000000
   40        5.576493   1.000000
   41        5.598072   1.000000
   42        5.766411   1.000000
   43        5.790021   1.000000
   44        5.805719   1.000000
   45        5.831805   1.000000
   46        5.995897   1.000000
   47        5.998013   1.000000
   48        6.096177   1.000000
   49        6.154891   1.000000
   50        6.212058   0.999999
   51        6.240219   0.999996
   52        6.309639   0.999751
   53        6.438559   0.951421
   54        6.490128   0.823682
   55        6.649033   0.093792
   56        6.683664   0.035341
   57        7.097951   0.000000
   58        7.107378   0.000000
   59        7.180348   0.000000
   60        7.320772   0.000000
   61        7.346041   0.000000
   62        7.422276   0.000000
   63        7.468975   0.000000
   64        7.484725   0.000000
   65        7.561313   0.000000
   66        7.617411   0.000000
   67        7.721171   0.000000
   68        7.768773   0.000000
 
  0.5000000E+00  0.1087052E-16  0.3333333E+00  0.1666667E+00
    1        1.441142   1.000000
    2        1.872090   1.000000
    3        2.312036   1.000000
    4        2.488157   1.000000
    5        2.930490   1.000000
    6        2.982706   1.000000
    7        3.146798   1.000000
    8        3.153879   1.000000
    9        3.322963   1.000000
   10        3.545191   1.000000
   11        3.620894   1.000000
   12        3.630443   1.000000
   13        3.690195   1.000000
   14        3.743654   1.000000
   15        3.854047   1.000000
   16        3.904558   1.000000
   17        4.001754   1.000000
   18        4.086861   1.000000
   19        4.110057   1.000000
   20        4.368285   1.000000
   21        4.393590   1.000000
   22        4.607147   1.000000
   23        4.635997   1.000000
   24        4.644004   1.000000
   25        4.683550   1.000000
   26        4.881193   1.000000
   27        4.886821   1.000000
   28        4.940364   1.000000
   29        4.942114   1.000000
   30        5.100426   1.000000
   31        5.201537   1.000000
   32        5.216423   1.000000
   33        5.286474   1.000000
   34        5.309002   1.000000
   35        5.386566   1.000000
   36        5.434274   1.000000
   37        5.496535   1.000000
   38        5.605177   1.000000
   39        5.606742   1.000000
   40        5.735201   1.000000
   41        5.736280   1.000000
   42        5.811598   1.000000
   43        5.857459   1.000000
   44        5.966380   1.000000
   45        6.071447   1.000000
   46        6.099851   1.000000
   47        6.120635   1.000000
   48        6.172226   1.000000
   49        6.175335   1.000000
   50        6.193094   1.000000
   51        6.211193   0.999999
   52        6.305465   0.999801
   53        6.354707   0.997777
   54        6.381110   0.993268
   55        6.414358   0.977306
   56        6.421497   0.971289
   57        6.526843   0.659197
   58        7.051797   0.000000
   59        7.063159   0.000000
   60        7.290330   0.000000
   61        7.399522   0.000000
   62        7.472266   0.000000
   63        7.478874   0.000000
   64        7.496139   0.000000
   65        7.567794   0.000000
   66        7.649702   0.000000
   67        7.688690   0.000000
   68        7.697008   0.000000
 
  0.0000000E+00  0.5000000E+00  0.3333333E+00  0.1666667E+00
    1        1.087751   1.000000
    2        1.135875   1.000000
    3        2.907517   1.000000
    4        3.058285   1.000000
    5        3.162159   1.000000
    6        3.244687   1.000000
    7        3.283735   1.000000
    8        3.291702   1.000000
    9        3.432595   1.000000
   10        3.480973   1.000000
   11        3.492750   1.000000
   12        3.522906   1.000000
   13        3.774677   1.000000
   14        3.780930   1.000000
   15        3.908484   1.000000
   16        3.979483   1.000000
   17        4.074031   1.000000
   18        4.094599   1.000000
   19        4.132788   1.000000
   20        4.186747   1.000000
   21        4.193138   1.000000
   22        4.265505   1.000000
   23        4.649117   1.000000
   24        4.775659   1.000000
   25        4.804986   1.000000
   26        4.845503   1.000000
   27        4.858682   1.000000
   28        4.891819   1.000000
   29        4.947470   1.000000
   30        4.961656   1.000000
   31        4.965346   1.000000
   32        5.250672   1.000000
   33        5.254489   1.000000
   34        5.337328   1.000000
   35        5.379479   1.000000
   36        5.482924   1.000000
   37        5.581475   1.000000
   38        5.587786   1.000000
   39        5.626833   1.000000
   40        5.643158   1.000000
   41        5.839306   1.000000
   42        5.881110   1.000000
   43        5.901234   1.000000
   44        5.916447   1.000000
   45        5.993683   1.000000
   46        6.018488   1.000000
   47        6.034173   1.000000
   48        6.066334   1.000000
   49        6.149273   1.000000
   50        6.182928   1.000000
   51        6.192280   1.000000
   52        6.199612   1.000000
   53        6.227999   0.999998
   54        6.285157   0.999935
   55        6.532278   0.630584
   56        6.548816   0.539636
   57        6.691778   0.027286
   58        6.757482   0.002176
   59        7.291560   0.000000
   60        7.357248   0.000000
   61        7.447609   0.000000
   62        7.455285   0.000000
   63        7.483015   0.000000
   64        7.574811   0.000000
   65        7.698658   0.000000
   66        7.714118   0.000000
   67        7.768241   0.000000
   68        7.787997   0.000000
 
  0.5000000E+00  0.5000000E+00  0.3333333E+00  0.1666667E+00
    1        1.645424   1.000000
    2        1.762262   1.000000
    3        2.177314   1.000000
    4        2.291138   1.000000
    5        2.839606   1.000000
    6        3.029749   1.000000
    7        3.396922   1.000000
    8        3.398936   1.000000
    9        3.476346   1.000000
   10        3.505967   1.000000
   11        3.637978   1.000000
   12        3.651528   1.000000
   13        3.806609   1.000000
   14        3.862406   1.000000
   15        3.867939   1.000000
   16        3.882411   1.000000
   17        3.951435   1.000000
   18        3.952246   1.000000
   19        4.000353   1.000000
   20        4.015416   1.000000
   21        4.072671   1.000000
   22        4.079168   1.000000
   23        4.685687   1.000000
   24        4.837416   1.000000
   25        4.882874   1.000000
   26        4.940358   1.000000
   27        4.947051   1.000000
   28        4.993066   1.000000
   29        5.064689   1.000000
   30        5.186489   1.000000
   31        5.203072   1.000000
   32        5.260710   1.000000
   33        5.345187   1.000000
   34        5.387586   1.000000
   35        5.426011   1.000000
   36        5.469607   1.000000
   37        5.595067   1.000000
   38        5.606914   1.000000
   39        5.662727   1.000000
   40        5.677382   1.000000
   41        5.689586   1.000000
   42        5.718638   1.000000
   43        5.906400   1.000000
   44        5.918701   1.000000
   45        5.999780   1.000000
   46        6.063134   1.000000
   47        6.102877   1.000000
   48        6.104618   1.000000
   49        6.253706   0.999990
   50        6.262683   0.999983
   51        6.360134   0.997179
   52        6.409309   0.980888
   53        6.516383   0.711644
   54        6.527257   0.657043
   55        6.591479   0.307191
   56        6.676748   0.043660
   57        6.741712   0.004289
   58        6.744571   0.003805
   59        6.938339   0.000000
   60        6.988556   0.000000
   61        7.070372   0.000000
   62        7.140626   0.000000
   63        7.388144   0.000000
   64        7.431934   0.000000
   65        7.490699   0.000000
   66        7.530529   0.000000
   67        7.538014   0.000000
   68        7.609774   0.000000
