       N       E                     dE             d eps       ncg     rms          rms(c)
DAV:   1     0.625808995428E+03    0.62581E+03   -0.22529E+04  1088   0.109E+03
DAV:   2    -0.793701686844E+02   -0.70518E+03   -0.68218E+03  1088   0.341E+02
DAV:   3    -0.196927294155E+03   -0.11756E+03   -0.11084E+03  1816   0.147E+02
DAV:   4    -0.208347155139E+03   -0.11420E+02   -0.10853E+02  1744   0.606E+01
DAV:   5    -0.208926083286E+03   -0.57893E+00   -0.56933E+00  1744   0.110E+01    0.566E+01
DAV:   6    -0.225029326824E+03   -0.16103E+02   -0.45754E+02  2008   0.163E+02    0.769E+01
DAV:   7    -0.188820405332E+03    0.36209E+02   -0.46731E+02  2040   0.137E+02    0.396E+01
DAV:   8    -0.185403946732E+03    0.34165E+01   -0.17711E+02  2104   0.934E+01    0.286E+01
DAV:   9    -0.180050449114E+03    0.53535E+01   -0.45001E+01  2096   0.475E+01    0.137E+01
DAV:  10    -0.179117701333E+03    0.93275E+00   -0.98344E+00  1808   0.197E+01    0.927E+00
DAV:  11    -0.179455081328E+03   -0.33738E+00   -0.31118E+00  2088   0.150E+01    0.104E+01
DAV:  12    -0.179123321380E+03    0.33176E+00   -0.29328E+00  2048   0.163E+01    0.729E+00
DAV:  13    -0.179097890284E+03    0.25431E-01   -0.18616E+00  2160   0.123E+01    0.590E+00
DAV:  14    -0.178892070079E+03    0.20582E+00   -0.11917E+00  2112   0.834E+00    0.271E+00
DAV:  15    -0.178874109054E+03    0.17961E-01   -0.13852E-01  1928   0.257E+00    0.193E+00
DAV:  16    -0.178868610678E+03    0.54984E-02   -0.83537E-02  2128   0.208E+00    0.121E+00
DAV:  17    -0.178859897698E+03    0.87130E-02   -0.49329E-02  1784   0.165E+00    0.808E-01
DAV:  18    -0.178856928419E+03    0.29693E-02   -0.16137E-02  1840   0.103E+00    0.466E-01
DAV:  19    -0.178856107540E+03    0.82088E-03   -0.58746E-03  1960   0.617E-01    0.333E-01
DAV:  20    -0.178855979372E+03    0.12817E-03   -0.26981E-03  2016   0.448E-01    0.298E-01
DAV:  21    -0.178855510622E+03    0.46875E-03   -0.19201E-03  1968   0.417E-01    0.127E-01
DAV:  22    -0.178855515416E+03   -0.47943E-05   -0.97440E-04  2000   0.250E-01    0.893E-02
DAV:  23    -0.178855445273E+03    0.70143E-04   -0.44925E-04  1792   0.172E-01    0.293E-02
DAV:  24    -0.178855447161E+03   -0.18881E-05   -0.71464E-05  1392   0.650E-02
   1 F= -.17885545E+03 E0= -.17879668E+03  d E =-.178855E+03
       N       E                     dE             d eps       ncg     rms          rms(c)
DAV:   1    -0.181865487178E+03   -0.30100E+01   -0.68974E+01  1088   0.708E+01    0.209E+01
DAV:   2    -0.222807706674E+03   -0.40942E+02   -0.22882E+02  1872   0.170E+02    0.742E+01
DAV:   3    -0.182118683506E+03    0.40689E+02   -0.11229E+02  1952   0.775E+01    0.215E+01
DAV:   4    -0.179850569999E+03    0.22681E+01   -0.37252E+01  2104   0.490E+01    0.118E+01
DAV:   5    -0.179164975527E+03    0.68559E+00   -0.16367E+01  1716   0.276E+01    0.766E+00
DAV:   6    -0.178875696099E+03    0.28928E+00   -0.30934E+00  2096   0.165E+01    0.456E+00
DAV:   7    -0.178830662561E+03    0.45034E-01   -0.49068E-01  2000   0.661E+00    0.382E+00
DAV:   8    -0.178810288173E+03    0.20374E-01   -0.15085E-01  1960   0.322E+00    0.315E+00
DAV:   9    -0.178792753569E+03    0.17535E-01   -0.67042E-02  2008   0.198E+00    0.268E+00
DAV:  10    -0.178771599084E+03    0.21154E-01   -0.51822E-02  2152   0.189E+00    0.151E+00
DAV:  11    -0.178767990054E+03    0.36090E-02   -0.16085E-02  2056   0.100E+00    0.119E+00
DAV:  12    -0.178766330120E+03    0.16599E-02   -0.41622E-03  2056   0.491E-01    0.769E-01
DAV:  13    -0.178765892524E+03    0.43760E-03   -0.12044E-03  2032   0.331E-01    0.691E-01
DAV:  14    -0.178765247956E+03    0.64457E-03   -0.67319E-04  2160   0.232E-01    0.562E-01
DAV:  15    -0.178764691874E+03    0.55608E-03   -0.63522E-04  2176   0.203E-01    0.425E-01
DAV:  16    -0.178764176376E+03    0.51550E-03   -0.10446E-03  2144   0.240E-01    0.194E-01
DAV:  17    -0.178764115979E+03    0.60396E-04   -0.20275E-04  1800   0.972E-02    0.141E-01
DAV:  18    -0.178764093322E+03    0.22658E-04   -0.21987E-05   864   0.458E-02    0.111E-01
DAV:  19    -0.178764075280E+03    0.18042E-04   -0.28119E-05   976   0.406E-02    0.835E-02
DAV:  20    -0.178764060669E+03    0.14611E-04   -0.72405E-05  1360   0.429E-02    0.432E-02
DAV:  21    -0.178764058077E+03    0.25920E-05   -0.19253E-05   912   0.240E-02
   2 F= -.17876406E+03 E0= -.17871133E+03  d E =0.913891E-01
       N       E                     dE             d eps       ncg     rms          rms(c)
DAV:   1    -0.179933094317E+03   -0.11690E+01   -0.21325E+01  1088   0.404E+01    0.116E+01
DAV:   2    -0.198553690768E+03   -0.18621E+02   -0.11876E+02  1984   0.990E+01    0.485E+01
DAV:   3    -0.178494379793E+03    0.20059E+02   -0.66711E+01  2040   0.533E+01    0.572E+00
DAV:   4    -0.179369830108E+03   -0.87545E+00   -0.11921E+01  1800   0.173E+01    0.592E+00
DAV:   5    -0.179045235935E+03    0.32459E+00   -0.31866E+00  1936   0.127E+01    0.212E+00
DAV:   6    -0.179081646679E+03   -0.36411E-01   -0.57717E-01  2032   0.746E+00    0.311E+00
DAV:   7    -0.179022684087E+03    0.58963E-01   -0.34232E-01  2016   0.558E+00    0.151E+00
DAV:   8    -0.179022963557E+03   -0.27947E-03   -0.12284E-01  1992   0.266E+00    0.141E+00
DAV:   9    -0.179009339201E+03    0.13624E-01   -0.61513E-02  2072   0.195E+00    0.559E-01
DAV:  10    -0.179008487001E+03    0.85220E-03   -0.15249E-02  1856   0.955E-01    0.403E-01
DAV:  11    -0.179008006269E+03    0.48073E-03   -0.31744E-03  1752   0.518E-01    0.295E-01
DAV:  12    -0.179007803840E+03    0.20243E-03   -0.14708E-03  1840   0.379E-01    0.243E-01
DAV:  13    -0.179007599302E+03    0.20454E-03   -0.17716E-03  1872   0.374E-01    0.149E-01
DAV:  14    -0.179007474464E+03    0.12484E-03   -0.12358E-03  1832   0.286E-01    0.417E-02
DAV:  15    -0.179007481669E+03   -0.72043E-05   -0.19195E-04  1736   0.876E-02    0.244E-02
DAV:  16    -0.179007477811E+03    0.38582E-05   -0.44233E-05  1080   0.612E-02
   3 F= -.17900748E+03 E0= -.17895122E+03  d E =-.152031E+00
       N       E                     dE             d eps       ncg     rms          rms(c)
DAV:   1    -0.179030143407E+03   -0.22662E-01   -0.10388E+00  1088   0.389E+00    0.665E-01
DAV:   2    -0.179052363102E+03   -0.22220E-01   -0.23890E-01  2152   0.354E+00    0.186E+00
DAV:   3    -0.179027095071E+03    0.25268E-01   -0.17208E-01  2160   0.323E+00    0.527E-01
DAV:   4    -0.179029752100E+03   -0.26570E-02   -0.43280E-02  2168   0.186E+00    0.726E-01
DAV:   5    -0.179024358011E+03    0.53941E-02   -0.30986E-02  2160   0.143E+00    0.163E-01
DAV:   6    -0.179024458279E+03   -0.10027E-03   -0.69365E-03  2088   0.579E-01    0.181E-01
DAV:   7    -0.179024250867E+03    0.20741E-03   -0.21169E-03  2096   0.411E-01    0.124E-01
DAV:   8    -0.179024141032E+03    0.10984E-03   -0.48157E-04  2000   0.235E-01    0.241E-02
DAV:   9    -0.179024152811E+03   -0.11779E-04   -0.15275E-04  1776   0.967E-02    0.353E-02
DAV:  10    -0.179024137581E+03    0.15230E-04   -0.60607E-05  1232   0.747E-02    0.151E-02
DAV:  11    -0.179024137980E+03   -0.39891E-06   -0.23173E-05   784   0.368E-02
   4 F= -.17902414E+03 E0= -.17896875E+03  d E =-.166602E-01
       N       E                     dE             d eps       ncg     rms          rms(c)
DAV:   1    -0.179040788567E+03   -0.16651E-01   -0.15979E+00  1088   0.483E+00    0.825E-01
DAV:   2    -0.179074283763E+03   -0.33495E-01   -0.36012E-01  2120   0.434E+00    0.229E+00
DAV:   3    -0.179036090196E+03    0.38194E-01   -0.26132E-01  2160   0.399E+00    0.646E-01
DAV:   4    -0.179040634974E+03   -0.45448E-02   -0.68875E-02  2168   0.233E+00    0.926E-01
DAV:   5    -0.179031973769E+03    0.86612E-02   -0.50484E-02  2160   0.183E+00    0.215E-01
DAV:   6    -0.179032128048E+03   -0.15428E-03   -0.10543E-02  2168   0.759E-01    0.239E-01
DAV:   7    -0.179031837260E+03    0.29079E-03   -0.31678E-03  2128   0.542E-01    0.168E-01
DAV:   8    -0.179031618832E+03    0.21843E-03   -0.97089E-04  1968   0.318E-01    0.292E-02
DAV:   9    -0.179031642474E+03   -0.23642E-04   -0.30052E-04  1864   0.125E-01    0.492E-02
DAV:  10    -0.179031617154E+03    0.25320E-04   -0.12305E-04  1632   0.948E-02    0.193E-02
DAV:  11    -0.179031618312E+03   -0.11579E-05   -0.41837E-05  1176   0.471E-02
   5 F= -.17903162E+03 E0= -.17897699E+03  d E =-.241405E-01
       N       E                     dE             d eps       ncg     rms          rms(c)
DAV:   1    -0.179038789088E+03   -0.71719E-02   -0.34427E-01  1088   0.231E+00    0.413E-01
DAV:   2    -0.179041330060E+03   -0.25410E-02   -0.50450E-02  2088   0.165E+00    0.717E-01
DAV:   3    -0.179037255703E+03    0.40744E-02   -0.40279E-02  2152   0.163E+00    0.344E-01
DAV:   4    -0.179039334449E+03   -0.20787E-02   -0.22809E-02  2160   0.127E+00    0.661E-01
DAV:   5    -0.179035892417E+03    0.34420E-02   -0.19294E-02  2152   0.109E+00    0.879E-02
DAV:   6    -0.179035932101E+03   -0.39684E-04   -0.17512E-03  2016   0.358E-01    0.858E-02
DAV:   7    -0.179035876247E+03    0.55854E-04   -0.44650E-04  1944   0.222E-01    0.568E-02
DAV:   8    -0.179035849510E+03    0.26737E-04   -0.15037E-04  1944   0.115E-01    0.183E-02
DAV:   9    -0.179035849311E+03    0.19857E-06   -0.27751E-05   984   0.557E-02
   6 F= -.17903585E+03 E0= -.17898056E+03  d E =-.423100E-02
       N       E                     dE             d eps       ncg     rms          rms(c)
DAV:   1    -0.179043609952E+03   -0.77604E-02   -0.64503E-01  1088   0.316E+00    0.571E-01
DAV:   2    -0.179047627521E+03   -0.40176E-02   -0.91191E-02  2064   0.219E+00    0.932E-01
DAV:   3    -0.179040584978E+03    0.70425E-02   -0.74877E-02  2152   0.218E+00    0.461E-01
DAV:   4    -0.179044677572E+03   -0.40926E-02   -0.42782E-02  2144   0.174E+00    0.938E-01
DAV:   5    -0.179037999346E+03    0.66782E-02   -0.36973E-02  2144   0.152E+00    0.116E-01
DAV:   6    -0.179038085295E+03   -0.85949E-04   -0.31941E-03  1984   0.467E-01    0.113E-01
DAV:   7    -0.179037970831E+03    0.11446E-03   -0.80354E-04  1984   0.288E-01    0.688E-02
DAV:   8    -0.179037933817E+03    0.37014E-04   -0.23435E-04  2032   0.145E-01    0.250E-02
DAV:   9    -0.179037933719E+03    0.97732E-07   -0.56112E-05  1448   0.743E-02
   7 F= -.17903793E+03 E0= -.17898196E+03  d E =-.631541E-02
       N       E                     dE             d eps       ncg     rms          rms(c)
DAV:   1    -0.179042055837E+03   -0.41220E-02   -0.22691E-01  1156   0.261E+00    0.729E-01
DAV:   2    -0.179128970158E+03   -0.86914E-01   -0.47274E-01  2120   0.649E+00    0.377E+00
DAV:   3    -0.179038039153E+03    0.90931E-01   -0.37309E-01  2128   0.562E+00    0.236E-01
DAV:   4    -0.179040679194E+03   -0.26400E-02   -0.34745E-02  1752   0.122E+00    0.435E-01
DAV:   5    -0.179038862690E+03    0.18165E-02   -0.11654E-02  2064   0.879E-01    0.178E-01
DAV:   6    -0.179038960370E+03   -0.97680E-04   -0.24387E-03  1992   0.513E-01    0.205E-01
DAV:   7    -0.179038655926E+03    0.30444E-03   -0.13489E-03  2000   0.352E-01    0.304E-02
DAV:   8    -0.179038679866E+03   -0.23940E-04   -0.37536E-04  1904   0.139E-01    0.500E-02
DAV:   9    -0.179038652997E+03    0.26870E-04   -0.16128E-04  1688   0.101E-01    0.899E-03
DAV:  10    -0.179038653516E+03   -0.51988E-06   -0.13755E-05   776   0.331E-02
   8 F= -.17903865E+03 E0= -.17898263E+03  d E =-.719797E-03
       N       E                     dE             d eps       ncg     rms          rms(c)
DAV:   1    -0.179038792024E+03   -0.13903E-03   -0.67682E-03  1176   0.453E-01    0.125E-01
DAV:   2    -0.179041389837E+03   -0.25978E-02   -0.14292E-02  2136   0.112E+00    0.654E-01
DAV:   3    -0.179038667178E+03    0.27227E-02   -0.11181E-02  2144   0.961E-01    0.433E-02
DAV:   4    -0.179038737618E+03   -0.70440E-04   -0.10085E-03  1752   0.208E-01    0.730E-02
DAV:   5    -0.179038684196E+03    0.53422E-04   -0.34651E-04  2072   0.152E-01    0.291E-02
DAV:   6    -0.179038684849E+03   -0.65327E-06   -0.58474E-05  1476   0.893E-02
   9 F= -.17903868E+03 E0= -.17898265E+03  d E =-.751130E-03
       N       E                     dE             d eps       ncg     rms          rms(c)
DAV:   1    -0.179039932521E+03   -0.12483E-02   -0.12396E-01  1104   0.158E+00    0.349E-01
DAV:   2    -0.179056495264E+03   -0.16563E-01   -0.95755E-02  2136   0.288E+00    0.165E+00
DAV:   3    -0.179039133098E+03    0.17362E-01   -0.72801E-02  2144   0.247E+00    0.158E-01
DAV:   4    -0.179039649791E+03   -0.51669E-03   -0.86139E-03  1728   0.614E-01    0.218E-01
DAV:   5    -0.179039093941E+03    0.55585E-03   -0.42930E-03  1932   0.502E-01    0.813E-02
DAV:   6    -0.179039154300E+03   -0.60359E-04   -0.89548E-04  1984   0.299E-01    0.118E-01
DAV:   7    -0.179039053368E+03    0.10093E-03   -0.44401E-04  1968   0.211E-01    0.279E-02
DAV:   8    -0.179039050538E+03    0.28295E-05   -0.12058E-04  1704   0.825E-02    0.207E-02
DAV:   9    -0.179039044560E+03    0.59780E-05   -0.17120E-05   804   0.469E-02
  10 F= -.17903904E+03 E0= -.17898278E+03  d E =-.359711E-03
       N       E                     dE             d eps       ncg     rms          rms(c)
DAV:   1    -0.179039054031E+03   -0.34923E-05   -0.82650E-04  1148   0.129E-01    0.288E-02
DAV:   2    -0.179039178757E+03   -0.12473E-03   -0.71419E-04  2128   0.245E-01    0.141E-01
DAV:   3    -0.179039049873E+03    0.12888E-03   -0.53291E-04  2128   0.212E-01    0.119E-02
DAV:   4    -0.179039052420E+03   -0.25463E-05   -0.42410E-05  1120   0.507E-02
  11 F= -.17903905E+03 E0= -.17898280E+03  d E =-.367570E-03
       N       E                     dE             d eps       ncg     rms          rms(c)
DAV:   1    -0.179039054289E+03   -0.44155E-05   -0.50783E-04  1188   0.107E-01    0.277E-02
DAV:   2    -0.179039181223E+03   -0.12693E-03   -0.68981E-04  2128   0.249E-01    0.140E-01
DAV:   3    -0.179039049913E+03    0.13131E-03   -0.50785E-04  2144   0.217E-01    0.149E-02
DAV:   4    -0.179039050140E+03   -0.22732E-06   -0.38819E-05  1064   0.493E-02
  12 F= -.17903905E+03 E0= -.17898282E+03  d E =-.365290E-03
       N       E                     dE             d eps       ncg     rms          rms(c)
DAV:   1    -0.179039124843E+03   -0.74930E-04   -0.36720E-03  1108   0.265E-01    0.659E-02
DAV:   2    -0.179039944458E+03   -0.81962E-03   -0.48409E-03  2096   0.628E-01    0.360E-01
DAV:   3    -0.179039098123E+03    0.84634E-03   -0.35632E-03  2096   0.530E-01    0.259E-02
DAV:   4    -0.179039107111E+03   -0.89880E-05   -0.18603E-04  1648   0.993E-02    0.201E-02
DAV:   5    -0.179039102241E+03    0.48697E-05   -0.38758E-05  1020   0.634E-02
  13 F= -.17903910E+03 E0= -.17898282E+03  d E =-.521015E-04
       N       E                     dE             d eps       ncg     rms          rms(c)
DAV:   1    -0.179039231101E+03   -0.12399E-03   -0.31003E-02  1096   0.764E-01    0.185E-01
DAV:   2    -0.179045732104E+03   -0.65010E-02   -0.37050E-02  2144   0.176E+00    0.101E+00
DAV:   3    -0.179039027613E+03    0.67045E-02   -0.27571E-02  2144   0.149E+00    0.721E-02
DAV:   4    -0.179039112512E+03   -0.84898E-04   -0.14611E-03  1696   0.278E-01    0.637E-02
DAV:   5    -0.179039075930E+03    0.36581E-04   -0.47204E-04  1968   0.195E-01    0.504E-02
DAV:   6    -0.179039089200E+03   -0.13270E-04   -0.28200E-04  2032   0.158E-01    0.671E-02
DAV:   7    -0.179039058659E+03    0.30541E-04   -0.14322E-04  1952   0.119E-01    0.197E-02
DAV:   8    -0.179039054670E+03    0.39886E-05   -0.23001E-05   940   0.500E-02
  14 F= -.17903905E+03 E0= -.17898263E+03  d E =-.453024E-05
       N       E                     dE             d eps       ncg     rms          rms(c)
DAV:   1    -0.179039158723E+03   -0.10006E-03   -0.10017E-02  1096   0.430E-01    0.106E-01
DAV:   2    -0.179041332764E+03   -0.21740E-02   -0.12060E-02  2144   0.102E+00    0.582E-01
DAV:   3    -0.179039102277E+03    0.22305E-02   -0.89588E-03  2144   0.865E-01    0.406E-02
DAV:   4    -0.179039131452E+03   -0.29174E-04   -0.51956E-04  1704   0.160E-01    0.372E-02
DAV:   5    -0.179039122513E+03    0.89388E-05   -0.14011E-04  1880   0.110E-01    0.311E-02
DAV:   6    -0.179039122373E+03    0.13988E-06   -0.60683E-05  1508   0.890E-02
  15 F= -.17903912E+03 E0= -.17898279E+03  d E =-.722329E-04
