 vasp.5.4.4.18Apr17-6-g9f103f2a35 (build Jul 11 2019 11:52:51) complex          
  
 executed on             LinuxIFC date 2023.11.29  16:43:01
 running on    4 total cores
 distrk:  each k-point on    4 cores,    1 groups
 distr:  one band on NCORES_PER_BAND=   1 cores,    4 groups


--------------------------------------------------------------------------------------------------------


 INCAR:
 POTCAR:    PAW_PBE V 08Apr2002                   
 POTCAR:    PAW_PBE Fe 06Sep2000                  
 POTCAR:    PAW_PBE V 08Apr2002                   
   VRHFIN =V: p6 d4 s1                                                          
   LEXCH  = PE                                                                  
   EATOM  =   170.8679 eV,   12.5584 Ry                                         
                                                                                
   TITEL  = PAW_PBE V 08Apr2002                                                 
   LULTRA =        F    use ultrasoft PP ?                                      
   IUNSCR =        1    unscreen: 0-lin 1-nonlin 2-no                           
   RPACOR =    2.000    partial core radius                                     
   POMASS =   50.941; ZVAL   =    5.000    mass and valenz                      
   RCORE  =    2.700    outmost cutoff radius                                   
   RWIGS  =    2.500; RWIGS  =    1.323    wigner-seitz radius (au A)           
   ENMAX  =  192.543; ENMIN  =  144.408 eV                                      
   RCLOC  =    1.779    cutoff for local pot                                    
   LCOR   =        T    correct aug charges                                     
   LPAW   =        T    paw PP                                                  
   EAUG   =  358.662                                                            
   DEXC   =    0.000                                                            
   RMAX   =    2.768    core radius for proj-oper                               
   RAUG   =    1.300    factor for augmentation sphere                          
   RDEP   =    2.762    radius for radial grids                                 
   RDEPT  =    2.240    core radius for aug-charge                              
                                                                                
   Atomic configuration                                                         
    9 entries                                                                   
     n  l   j            E        occ.                                          
     1  0  0.50     -5360.7193   2.0000                                         
     2  0  0.50      -598.4546   2.0000                                         
     2  1  1.50      -499.0155   6.0000                                         
     3  0  0.50       -66.5711   2.0000                                         
     3  1  1.50       -40.5282   6.0000                                         
     3  2  2.50        -2.4291   4.0000                                         
     4  0  0.50        -3.8743   1.0000                                         
     4  1  0.50        -2.7212   0.0000                                         
     4  3  2.50        -1.3606   0.0000                                         
   Description                                                                  
     l       E           TYP  RCUT    TYP  RCUT                                 
     2     -2.4290901     23  2.700                                             
     2     -3.7896727     23  2.700                                             
     0     -3.8742752     23  2.700                                             
     0     27.2116520     23  2.700                                             
     1     -2.7211652     23  2.700                                             
     1     27.2116520     23  2.700                                             
  local pseudopotential read in
  partial core-charges read in
  partial kinetic energy density read in
  atomic valenz-charges read in
  non local Contribution for L=           2  read in
    real space projection operators read in
  non local Contribution for L=           2  read in
    real space projection operators read in
  non local Contribution for L=           0  read in
    real space projection operators read in
  non local Contribution for L=           0  read in
    real space projection operators read in
  non local Contribution for L=           1  read in
    real space projection operators read in
  non local Contribution for L=           1  read in
    real space projection operators read in
    PAW grid and wavefunctions read in
 
   number of l-projection  operators is LMAX  =           6
   number of lm-projection operators is LMMAX =          18
 
 POTCAR:    PAW_PBE Fe 06Sep2000                  
   VRHFIN =Fe:  d7 s1                                                           
   LEXCH  = PE                                                                  
   EATOM  =   594.3153 eV,   43.6809 Ry                                         
                                                                                
   TITEL  = PAW_PBE Fe 06Sep2000                                                
   LULTRA =        F    use ultrasoft PP ?                                      
   IUNSCR =        1    unscreen: 0-lin 1-nonlin 2-no                           
   RPACOR =    2.000    partial core radius                                     
   POMASS =   55.847; ZVAL   =    8.000    mass and valenz                      
   RCORE  =    2.300    outmost cutoff radius                                   
   RWIGS  =    2.460; RWIGS  =    1.302    wigner-seitz radius (au A)           
   ENMAX  =  267.882; ENMIN  =  200.911 eV                                      
   RCLOC  =    1.701    cutoff for local pot                                    
   LCOR   =        T    correct aug charges                                     
   LPAW   =        T    paw PP                                                  
   EAUG   =  511.368                                                            
   DEXC   =    0.000                                                            
   RMAX   =    2.356    core radius for proj-oper                               
   RAUG   =    1.300    factor for augmentation sphere                          
   RDEP   =    2.442    radius for radial grids                                 
   RDEPT  =    1.890    core radius for aug-charge                              
                                                                                
   Atomic configuration                                                         
    9 entries                                                                   
     n  l   j            E        occ.                                          
     1  0  0.50     -6993.8440   2.0000                                         
     2  0  0.50      -814.6047   2.0000                                         
     2  1  1.50      -693.3689   6.0000                                         
     3  0  0.50       -89.4732   2.0000                                         
     3  1  1.50       -55.6373   6.0000                                         
     3  2  2.50        -3.8151   7.0000                                         
     4  0  0.50        -4.2551   1.0000                                         
     4  1  1.50        -3.4015   0.0000                                         
     4  3  2.50        -1.3606   0.0000                                         
   Description                                                                  
     l       E           TYP  RCUT    TYP  RCUT                                 
     2     -3.8151135     23  2.300                                             
     2     -5.1756961     23  2.300                                             
     0     -4.2550963     23  2.300                                             
     0      7.2035603     23  2.300                                             
     1     -2.7211652     23  2.300                                             
     1     18.4316424     23  2.300                                             
  local pseudopotential read in
  partial core-charges read in
  partial kinetic energy density read in
  atomic valenz-charges read in
  non local Contribution for L=           2  read in
    real space projection operators read in
  non local Contribution for L=           2  read in
    real space projection operators read in
  non local Contribution for L=           0  read in
    real space projection operators read in
  non local Contribution for L=           0  read in
    real space projection operators read in
  non local Contribution for L=           1  read in
    real space projection operators read in
  non local Contribution for L=           1  read in
    real space projection operators read in
    PAW grid and wavefunctions read in
 
   number of l-projection  operators is LMAX  =           6
   number of lm-projection operators is LMMAX =          18
 

 ----------------------------------------------------------------------------- 
|                                                                             |
|  ADVICE TO THIS USER RUNNING 'VASP/VAMP'   (HEAR YOUR MASTER'S VOICE ...):  |
|                                                                             |
|      You have a (more or less) 'large supercell' and for larger cells       |
|      it might be more efficient to use real space projection opertators     |
|      So try LREAL= Auto  in the INCAR   file.                               |
|      Mind:          For very  accurate calculation you might also keep the  |
|      reciprocal projection scheme          (i.e. LREAL=.FALSE.)             |
|                                                                             |
 ----------------------------------------------------------------------------- 

  PAW_PBE V 08Apr2002                   :
 energy of atom  1       EATOM= -170.8679
 kinetic energy error for atom=    0.0066 (will be added to EATOM!!)
  PAW_PBE Fe 06Sep2000                  :
 energy of atom  2       EATOM= -594.3153
 kinetic energy error for atom=    0.0346 (will be added to EATOM!!)
 
 
 POSCAR: EA0     6.365  9.702  4.265 90.02 90.00 
  positions in direct lattice
  No initial velocities read in
 exchange correlation table for  LEXCH =        8
   RHO(1)=    0.500       N(1)  =     2000
   RHO(2)=  100.500       N(2)  =     4000
 


--------------------------------------------------------------------------------------------------------


 ion  position               nearest neighbor table
   1  0.555  0.502  0.867-  11 2.48   3 2.53  15 2.53   9 2.55  14 2.58  14 2.58   8 2.61   8 2.61
                            18 2.96  20 2.96  20 2.96  10 2.98   6 2.98   6 2.99
   2  0.563  0.003  0.867-  18 2.49  19 2.50  10 2.56  13 2.59  13 2.59   7 2.60   7 2.60  12 2.65
                             4 2.93   4 2.93  15 2.95  11 2.96   5 2.99   5 2.99
   3  0.950  0.603  0.867-  18 2.47   1 2.53   9 2.53  20 2.59  20 2.59  16 2.60  16 2.60  11 2.64
                             8 2.92   8 2.92  15 2.94  12 2.95   6 2.96   6 2.96
   4  0.855  0.952  0.367-  16 2.49  13 2.49   7 2.56   5 2.56  19 2.60  18 2.60  19 2.60  18 2.60
                            12 2.93   2 2.93  12 2.93   2 2.93   8 2.94  17 2.94
   5  0.256  0.051  0.367-   7 2.48  17 2.52   4 2.56  13 2.56  10 2.59  10 2.59  12 2.60  12 2.60
                            16 2.95  19 2.98  19 2.98   2 2.99   2 2.99  14 2.99
   6  0.249  0.551  0.367-  16 2.50  20 2.51  14 2.54   9 2.58   9 2.58  11 2.62  11 2.62   8 2.62
                            17 2.96   3 2.96   3 2.96   1 2.98   1 2.99   7 2.99
   7  0.455  0.854  0.367-   5 2.48   8 2.52   4 2.56  16 2.56  11 2.59  11 2.59   2 2.60   2 2.60
                            13 2.95  18 2.98  18 2.98  12 2.99  12 2.99   6 2.99
   8  0.660  0.654  0.367-  20 2.50  16 2.52   7 2.52  18 2.58  18 2.58   1 2.61   1 2.61   6 2.62
                             3 2.92   3 2.92  11 2.94  11 2.94   4 2.94  14 2.96
   9  0.156  0.403  0.867-  10 2.48  15 2.53   3 2.53   1 2.55   6 2.58   6 2.58  17 2.61  17 2.61
                            19 2.96  20 2.96  20 2.96  11 2.98  14 2.98  14 2.99
  10  0.347  0.202  0.867-   9 2.48  19 2.52   2 2.56   5 2.59   5 2.59  14 2.62  14 2.62  15 2.64
                            17 2.94  17 2.94  12 2.96   1 2.98  13 3.00  13 3.00
  11  0.364  0.703  0.867-   1 2.48  18 2.52  12 2.56   7 2.59   7 2.59   6 2.62   6 2.62   3 2.64
                             8 2.94   8 2.94   2 2.96   9 2.98  16 3.00  16 3.00
  12  0.148  0.902  0.867-  19 2.49  18 2.50  11 2.56  16 2.58  16 2.59   5 2.60   5 2.60   2 2.65
                             4 2.93   4 2.93   3 2.95  10 2.96   7 2.99   7 2.99
  13  0.657  0.152  0.367-   4 2.49  14 2.50  17 2.52   5 2.56   2 2.59   2 2.59  15 2.60  15 2.60
                            19 2.94  19 2.94   7 2.95  20 2.96  10 3.00  10 3.00
  14  0.462  0.354  0.367-  13 2.50  20 2.52   6 2.54   1 2.58   1 2.58  10 2.62  10 2.62  17 2.62
                            15 2.96   8 2.96  15 2.96   9 2.98   9 2.99   5 2.99
  15  0.761  0.302  0.867-  19 2.47   9 2.53   1 2.53  20 2.59  20 2.59  13 2.60  13 2.60  10 2.64
                            17 2.92  17 2.92   3 2.94   2 2.95  14 2.96  14 2.96
  16  0.054  0.753  0.367-   4 2.49   6 2.50   8 2.52   7 2.56  12 2.58  12 2.59   3 2.60   3 2.60
                            18 2.94  18 2.94   5 2.95  20 2.96  11 3.00  11 3.00
  17  0.051  0.251  0.367-  20 2.50  13 2.52   5 2.52  19 2.58  19 2.59   9 2.61   9 2.61  14 2.62
                            15 2.92  15 2.92  10 2.94  10 2.94   4 2.94   6 2.96
  18  0.758  0.802  0.867-   3 2.47   2 2.49  12 2.50  11 2.52   8 2.58   8 2.58   4 2.60   4 2.60
                            16 2.94  16 2.94   1 2.96  19 2.96   7 2.98   7 2.98
  19  0.953  0.103  0.867-  15 2.47  12 2.49   2 2.50  10 2.52  17 2.58  17 2.59   4 2.60   4 2.60
                            13 2.94  13 2.94   9 2.96  18 2.96   5 2.98   5 2.98
  20  0.856  0.452  0.367-  17 2.50   8 2.50   6 2.51  14 2.52  15 2.59   3 2.59   3 2.59  15 2.59
                             9 2.96   1 2.96  16 2.96   1 2.96   9 2.96  13 2.96
 
  LATTYP: Found a triclinic cell.
 ALAT       =    16.8645262571
 B/A-ratio  =     0.3774375813
 C/A-ratio  =     0.2528772696
 COS(alpha) =     0.0000762078
 COS(beta)  =     0.5055777904
 COS(gamma) =     0.6513012481
  
  Lattice vectors:
  
 A1 = ( -10.9838870000,  -9.5403010000,  -8.5293100000)
 A2 = (  -6.3653060000,   0.0000000000,   0.0000000000)
 A3 = (  -0.0003250000,   0.0017060000,  -4.2646550000)


Analysis of symmetry for initial positions (statically):
=====================================================================
 Subroutine PRICEL returns:
 Original cell was already a primitive cell.
 

 Routine SETGRP: Setting up the symmetry group for a 
 triclinic supercell.


 Subroutine GETGRP returns: Found  1 space group operations
 (whereof  1 operations were pure point group operations)
 out of a pool of  2 trial point group operations.


The static configuration has the point symmetry C_1 .


Analysis of symmetry for dynamics (positions and initial velocities):
=====================================================================
 Subroutine PRICEL returns:
 Original cell was already a primitive cell.
 

 Routine SETGRP: Setting up the symmetry group for a 
 triclinic supercell.


 Subroutine GETGRP returns: Found  1 space group operations
 (whereof  1 operations were pure point group operations)
 out of a pool of  2 trial point group operations.


The dynamic configuration has the point symmetry C_1 .


 Subroutine INISYM returns: Found  1 space group operations
 (whereof  1 operations are pure point group operations),
 and found     1 'primitive' translations

 
 
 KPOINTS: EA                                      

Automatic generation of k-mesh.
Space group operators:
 irot       det(A)        alpha          n_x          n_y          n_z        tau_x        tau_y        tau_z
    1     1.000000     0.000000     1.000000     0.000000     0.000000     0.000000     0.000000     0.000000
 
 Subroutine IBZKPT returns following result:
 ===========================================
 
 Found      8 irreducible k-points:
 
 Following reciprocal coordinates:
            Coordinates               Weight
  0.000000  0.000000  0.000000      1.000000
  0.500000  0.000000  0.000000      1.000000
  0.000000  0.500000  0.000000      1.000000
  0.500000  0.500000  0.000000      1.000000
  0.000000  0.000000  0.333333      2.000000
  0.500000  0.000000  0.333333      2.000000
  0.000000  0.500000  0.333333      2.000000
  0.500000  0.500000  0.333333      2.000000
 
 Following cartesian coordinates:
            Coordinates               Weight
  0.000000  0.000000  0.000000      1.000000
  0.078551  0.014382 -0.000000      1.000000
  0.000000  0.052391  0.000021      1.000000
  0.078551  0.066773  0.000021      1.000000
  0.000000  0.000000  0.078162      2.000000
  0.078551  0.014382  0.078162      2.000000
  0.000000  0.052391  0.078183      2.000000
  0.078551  0.066773  0.078183      2.000000
 


--------------------------------------------------------------------------------------------------------




 Dimension of arrays:
   k-points           NKPTS =      8   k-points in BZ     NKDIM =      8   number of bands    NBANDS=     68
   number of dos      NEDOS =    301   number of ions     NIONS =     20
   non local maximal  LDIM  =      6   non local SUM 2l+1 LMDIM =     18
   total plane-waves  NPLWV =  20160
   max r-space proj   IRMAX =      1   max aug-charges    IRDMAX=   4918
   dimension x,y,z NGX =    28 NGY =   40 NGZ =   18
   dimension x,y,z NGXF=    56 NGYF=   80 NGZF=   36
   support grid    NGXF=    56 NGYF=   80 NGZF=   36
   ions per type =              17   3
   NGX,Y,Z   is equivalent  to a cutoff of   7.31,  6.85,  7.02 a.u.
   NGXF,Y,Z  is equivalent  to a cutoff of  14.63, 13.71, 14.03 a.u.

 SYSTEM =  unknown system                          
 POSCAR =  EA0     6.365  9.702  4.265 90.02 90.00 

 Startparameter for this run:
   NWRITE =      2    write-flag & timer
   PREC   = normal    normal or accurate (medium, high low for compatibility)
   ISTART =      0    job   : 0-new  1-cont  2-samecut
   ICHARG =      2    charge: 1-file 2-atom 10-const
   ISPIN  =      1    spin polarized calculation?
   LNONCOLLINEAR =      F non collinear calculations
   LSORBIT =      F    spin-orbit coupling
   INIWAV =      1    electr: 0-lowe 1-rand  2-diag
   LASPH  =      F    aspherical Exc in radial PAW
   METAGGA=      F    non-selfconsistent MetaGGA calc.

 Electronic Relaxation 1
   ENCUT  =  267.9 eV  19.69 Ry    4.44 a.u.   8.49 12.95  5.69*2*pi/ulx,y,z
   ENINI  =  267.9     initial cutoff
   ENAUG  =  511.4 eV  augmentation charge cutoff
   NELM   =     60;   NELMIN=  2; NELMDL= -5     # of ELM steps 
   EDIFF  = 0.1E-04   stopping-criterion for ELM
   LREAL  =      F    real-space projection
   NLSPLINE    = F    spline interpolate recip. space projectors
   LCOMPAT=      F    compatible to vasp.4.4
   GGA_COMPAT  = T    GGA compatible to vasp.4.4-vasp.4.6
   LMAXPAW     = -100 max onsite density
   LMAXMIX     =    2 max onsite mixed and CHGCAR
   VOSKOWN=      0    Vosko Wilk Nusair interpolation
   ROPT   =    0.00000   0.00000
 Ionic relaxation
   EDIFFG = -.1E-01   stopping-criterion for IOM
   NSW    =    500    number of steps for IOM
   NBLOCK =      1;   KBLOCK =    500    inner block; outer block 
   IBRION =      2    ionic relax: 0-MD 1-quasi-New 2-CG
   NFREE  =      1    steps in history (QN), initial steepest desc. (CG)
   ISIF   =      3    stress and relaxation
   IWAVPR =     11    prediction:  0-non 1-charg 2-wave 3-comb
   ISYM   =      2    0-nonsym 1-usesym 2-fastsym
   LCORR  =      T    Harris-Foulkes like correction to forces

   POTIM  = 0.5000    time-step for ionic-motion
   TEIN   =    0.0    initial temperature
   TEBEG  =    0.0;   TEEND  =   0.0 temperature during run
   SMASS  =  -3.00    Nose mass-parameter (am)
   estimated Nose-frequenzy (Omega)   =  0.10E-29 period in steps =****** mass=  -0.926E-27a.u.
   SCALEE = 1.0000    scale energy and forces
   NPACO  =    256;   APACO  = 16.0  distance and # of slots for P.C.
   PSTRESS=    0.0 pullay stress

  Mass of Ions in am
   POMASS =  50.94 55.85
  Ionic Valenz
   ZVAL   =   5.00  8.00
  Atomic Wigner-Seitz radii
   RWIGS  =  -1.00 -1.00
  virtual crystal weights 
   VCA    =   1.00  1.00
   NELECT =     109.0000    total number of electrons
   NUPDOWN=      -1.0000    fix difference up-down

 DOS related values:
   EMIN   =  10.00;   EMAX   =-10.00  energy-range for DOS
   EFERMI =   0.00
   ISMEAR =     0;   SIGMA  =   0.10  broadening in eV -4-tet -1-fermi 0-gaus

 Electronic relaxation 2 (details)
   IALGO  =     38    algorithm
   LDIAG  =      T    sub-space diagonalisation (order eigenvalues)
   LSUBROT=      F    optimize rotation matrix (better conditioning)
   TURBO    =      0    0=normal 1=particle mesh
   IRESTART =      0    0=no restart 2=restart with 2 vectors
   NREBOOT  =      0    no. of reboots
   NMIN     =      0    reboot dimension
   EREF     =   0.00    reference energy to select bands
   IMIX   =      4    mixing-type and parameters
     AMIX     =   0.40;   BMIX     =  1.00
     AMIX_MAG =   1.60;   BMIX_MAG =  1.00
     AMIN     =   0.10
     WC   =   100.;   INIMIX=   1;  MIXPRE=   1;  MAXMIX= -45

 Intra band minimization:
   WEIMIN = 0.0010     energy-eigenvalue tresh-hold
   EBREAK =  0.37E-07  absolut break condition
   DEPER  =   0.30     relativ break condition  

   TIME   =   0.40     timestep for ELM

  volume/ion in A,a.u.               =      12.95        87.42
  Fermi-wavevector in a.u.,A,eV,Ry     =   1.226714  2.318154 20.474432  1.504828
  Thomas-Fermi vector in A             =   2.361705
 
 Write flags
   LWAVE        =      F    write WAVECAR
   LDOWNSAMPLE  =      F    k-point downsampling of WAVECAR
   LCHARG       =      F    write CHGCAR
   LVTOT        =      F    write LOCPOT, total local potential
   LVHAR        =      F    write LOCPOT, Hartree potential only
   LELF         =      F    write electronic localiz. function (ELF)
   LORBIT       =      0    0 simple, 1 ext, 2 COOP (PROOUT), +10 PAW based schemes


 Dipole corrections
   LMONO  =      F    monopole corrections only (constant potential shift)
   LDIPOL =      F    correct potential (dipole corrections)
   IDIPOL =      0    1-x, 2-y, 3-z, 4-all directions 
   EPSILON=  1.0000000 bulk dielectric constant

 Exchange correlation treatment:
   GGA     =    --    GGA type
   LEXCH   =     8    internal setting for exchange type
   VOSKOWN=      0    Vosko Wilk Nusair interpolation
   LHFCALC =     F    Hartree Fock is set to
   LHFONE  =     F    Hartree Fock one center treatment
   AEXX    =    0.0000 exact exchange contribution

 Linear response parameters
   LEPSILON=     F    determine dielectric tensor
   LRPA    =     F    only Hartree local field effects (RPA)
   LNABLA  =     F    use nabla operator in PAW spheres
   LVEL    =     F    velocity operator in full k-point grid
   LINTERFAST=   F  fast interpolation
   KINTER  =     0    interpolate to denser k-point grid
   CSHIFT  =0.1000    complex shift for real part using Kramers Kronig
   OMEGAMAX=  -1.0    maximum frequency
   DEG_THRESHOLD= 0.2000000E-02 threshold for treating states as degnerate
   RTIME   =   -0.100 relaxation time in fs
  (WPLASMAI=    0.000 imaginary part of plasma frequency in eV, 0.658/RTIME)
   DFIELD  = 0.0000000 0.0000000 0.0000000 field for delta impulse in time
 
 Orbital magnetization related:
   ORBITALMAG=     F  switch on orbital magnetization
   LCHIMAG   =     F  perturbation theory with respect to B field
   DQ        =  0.001000  dq finite difference perturbation B field
   LLRAUG    =     F  two centre corrections for induced B field



--------------------------------------------------------------------------------------------------------


 conjugate gradient relaxation of ions
 charge density and potential will be updated during run
 non-spin polarized calculation
 Variant of blocked Davidson
 Davidson routine will perform the subspace rotation
 perform sub-space diagonalisation
    after iterative eigenvector-optimisation
 modified Broyden-mixing scheme, WC =      100.0
 initial mixing is a Kerker type mixing with AMIX =  0.4000 and BMIX =      1.0000
 Hartree-type preconditioning will be used
 using additional bands           13
 reciprocal scheme for non local part
 use partial core corrections
 calculate Harris-corrections to forces 
   (improved forces if not selfconsistent)
 use gradient corrections 
 use of overlap-Matrix (Vanderbilt PP)
 Gauss-broadening in eV      SIGMA  =   0.10


--------------------------------------------------------------------------------------------------------


  energy-cutoff  :      267.88
  volume of cell :      259.07
      direct lattice vectors                 reciprocal lattice vectors
     6.365306000  0.000000000  0.000000000     0.157101638  0.028764012 -0.000000466
    -1.747375000  9.543713000  0.000000000     0.000000000  0.104781022  0.000041916
     0.000325000 -0.001706000  4.264655000     0.000000000  0.000000000  0.234485556

  length of vectors
     6.365306000  9.702359363  4.264655354     0.159713159  0.104781030  0.234485556


 
 k-points in units of 2pi/SCALE and weight: EA                                      
   0.00000000  0.00000000  0.00000000       0.083
   0.07855082  0.01438201 -0.00000023       0.083
   0.00000000  0.05239051  0.00002096       0.083
   0.07855082  0.06677252  0.00002072       0.083
   0.00000000  0.00000000  0.07816185       0.167
   0.07855082  0.01438201  0.07816162       0.167
   0.00000000  0.05239051  0.07818281       0.167
   0.07855082  0.06677252  0.07818258       0.167
 
 k-points in reciprocal lattice and weights: EA                                      
   0.00000000  0.00000000  0.00000000       0.083
   0.50000000  0.00000000  0.00000000       0.083
   0.00000000  0.50000000  0.00000000       0.083
   0.50000000  0.50000000  0.00000000       0.083
   0.00000000  0.00000000  0.33333333       0.167
   0.50000000  0.00000000  0.33333333       0.167
   0.00000000  0.50000000  0.33333333       0.167
   0.50000000  0.50000000  0.33333333       0.167
 
 position of ions in fractional coordinates (direct lattice) 
   0.55528200  0.50228900  0.86677700
   0.56308000  0.00273500  0.86726900
   0.95003100  0.60260400  0.86659200
   0.85544100  0.95241400  0.36738300
   0.25607400  0.05129900  0.36722600
   0.24876600  0.55126200  0.36659900
   0.45482500  0.85357300  0.36712600
   0.65952600  0.65372200  0.36680400
   0.15580700  0.40252900  0.86658200
   0.34723700  0.20173300  0.86706000
   0.36362900  0.70299200  0.86679800
   0.14772800  0.90209100  0.86717900
   0.65718100  0.15191300  0.36740100
   0.46218600  0.35353500  0.36687600
   0.76091200  0.30235500  0.86721500
   0.05370400  0.75299800  0.36679300
   0.05134900  0.25114400  0.36689600
   0.75775100  0.80171600  0.86698000
   0.95293800  0.10304800  0.86726400
   0.85558800  0.45245900  0.36680100
 
 position of ions in cartesian coordinates  (Angst):
   2.65713431  4.79222334  3.69650487
   3.57967929  0.02462249  3.69860308
   4.99454450  5.74960122  3.69571591
   3.78103872  9.08893912  1.56676175
   1.54047013  0.48895645  1.56609220
   0.62032942  5.26046090  1.56341826
   1.40370750  8.14562942  1.56566573
   3.05590654  6.23830938  1.56429251
   0.28867176  3.84014286  3.69567326
   1.85804835  1.92380265  3.69771176
   1.08650092  6.70767513  3.69659442
  -0.63567550  8.60781820  3.69821926
   3.91782859  1.44918729  1.56683851
   2.32431633  3.37341068  1.56459957
   4.31539200  2.88410988  3.69837279
  -0.97380828  7.18577105  1.56424560
  -0.11187141  2.39622033  1.56468486
   3.42270026  7.64986834  3.69737059
   5.88596033  0.98198098  3.69858175
   4.65558310  4.31751308  1.56427972
 


--------------------------------------------------------------------------------------------------------


 k-point  1 :   0.0000 0.0000 0.0000  plane waves:    2573
 k-point  2 :   0.5000 0.0000 0.0000  plane waves:    2588
 k-point  3 :   0.0000 0.5000 0.0000  plane waves:    2592
 k-point  4 :   0.5000 0.5000 0.0000  plane waves:    2574
 k-point  5 :   0.0000 0.0000 0.3333  plane waves:    2574
 k-point  6 :   0.5000 0.0000 0.3333  plane waves:    2561
 k-point  7 :   0.0000 0.5000 0.3333  plane waves:    2567
 k-point  8 :   0.5000 0.5000 0.3333  plane waves:    2560

 maximum and minimum number of plane-waves per node :      2592     2560

 maximum number of plane-waves:      2592
 maximum index in each direction: 
   IXMAX=    8   IYMAX=   12   IZMAX=    5
   IXMIN=   -8   IYMIN=  -13   IZMIN=   -6


 serial   3D FFT for wavefunctions
 parallel 3D FFT for charge:
    minimum data exchange during FFTs selected (reduces bandwidth)


 total amount of memory used by VASP MPI-rank0    48221. kBytes
=======================================================================

   base      :      30000. kBytes
   nonl-proj :       6801. kBytes
   fftplans  :       1515. kBytes
   grid      :       3171. kBytes
   one-center:        311. kBytes
   wavefun   :       6423. kBytes
 
     INWAV:  cpu time    0.0000: real time    0.0000
 Broyden mixing: mesh for mixing (old mesh)
   NGX = 17   NGY = 25   NGZ = 11
  (NGX  = 56   NGY  = 80   NGZ  = 36)
  gives a total of   4675 points

 initial charge density was supplied:
 charge density of overlapping atoms calculated
 number of electron     109.0000000 magnetization 
 keeping initial charge density in first step


--------------------------------------------------------------------------------------------------------


 Maximum index for augmentation-charges         1156 (set IRDMAX)


--------------------------------------------------------------------------------------------------------


 First call to EWALD:  gamma=   0.278
 Maximum number of real-space cells 3x 2x 4
 Maximum number of reciprocal cells 3x 4x 2

    FEWALD:  cpu time    0.0024: real time    0.0024


--------------------------------------- Iteration      1(   1)  ---------------------------------------


    POTLOK:  cpu time    0.0710: real time    0.1192
    SETDIJ:  cpu time    0.0316: real time    0.0436
     EDDAV:  cpu time    1.7564: real time    1.7748
       DOS:  cpu time    0.0011: real time    0.0011
    --------------------------------------------
      LOOP:  cpu time    1.8601: real time    1.9388

 eigenvalue-minimisations  :  1088
 total energy-change (2. order) : 0.6258090E+03  (-0.2252930E+04)
 number of electron     109.0000000 magnetization 
 augmentation part      109.0000000 magnetization 

 Free energy of the ion-electron system (eV)
  ---------------------------------------------------
  alpha Z        PSCENC =       552.45264090
  Ewald energy   TEWEN  =     -5323.15544826
  -Hartree energ DENC   =      -786.93296615
  -exchange      EXHF   =         0.00000000
  -V(xc)+E(xc)   XCENC  =      -770.81230158
  PAW double counting   =      5171.05454107    -4356.08836938
  entropy T*S    EENTRO =        -0.06840372
  eigenvalues    EBANDS =      1451.87507632
  atomic energy  EATOM  =      4687.48422623
  Solvation  Ediel_sol  =         0.00000000
  ---------------------------------------------------
  free energy    TOTEN  =       625.80899543 eV

  energy without entropy =      625.87739915  energy(sigma->0) =      625.84319729


--------------------------------------------------------------------------------------------------------




--------------------------------------- Iteration      1(   2)  ---------------------------------------


     EDDAV:  cpu time    1.4983: real time    1.5131
       DOS:  cpu time    0.0012: real time    0.0012
    --------------------------------------------
      LOOP:  cpu time    1.4995: real time    1.5143

 eigenvalue-minimisations  :  1088
 total energy-change (2. order) :-0.7051792E+03  (-0.6821759E+03)
 number of electron     109.0000000 magnetization 
 augmentation part      109.0000000 magnetization 

 Free energy of the ion-electron system (eV)
  ---------------------------------------------------
  alpha Z        PSCENC =       552.45264090
  Ewald energy   TEWEN  =     -5323.15544826
  -Hartree energ DENC   =      -786.93296615
  -exchange      EXHF   =         0.00000000
  -V(xc)+E(xc)   XCENC  =      -770.81230158
  PAW double counting   =      5171.05454107    -4356.08836938
  entropy T*S    EENTRO =        -0.05311623
  eigenvalues    EBANDS =       746.68062472
  atomic energy  EATOM  =      4687.48422623
  Solvation  Ediel_sol  =         0.00000000
  ---------------------------------------------------
  free energy    TOTEN  =       -79.37016868 eV

  energy without entropy =      -79.31705246  energy(sigma->0) =      -79.34361057


--------------------------------------------------------------------------------------------------------




--------------------------------------- Iteration      1(   3)  ---------------------------------------


     EDDAV:  cpu time    2.7103: real time    2.7382
       DOS:  cpu time    0.0013: real time    0.0013
    --------------------------------------------
      LOOP:  cpu time    2.7116: real time    2.7395

 eigenvalue-minimisations  :  1816
 total energy-change (2. order) :-0.1175571E+03  (-0.1108415E+03)
 number of electron     109.0000000 magnetization 
 augmentation part      109.0000000 magnetization 

 Free energy of the ion-electron system (eV)
  ---------------------------------------------------
  alpha Z        PSCENC =       552.45264090
  Ewald energy   TEWEN  =     -5323.15544826
  -Hartree energ DENC   =      -786.93296615
  -exchange      EXHF   =         0.00000000
  -V(xc)+E(xc)   XCENC  =      -770.81230158
  PAW double counting   =      5171.05454107    -4356.08836938
  entropy T*S    EENTRO =        -0.07741586
  eigenvalues    EBANDS =       629.14779888
  atomic energy  EATOM  =      4687.48422623
  Solvation  Ediel_sol  =         0.00000000
  ---------------------------------------------------
  free energy    TOTEN  =      -196.92729415 eV

  energy without entropy =     -196.84987830  energy(sigma->0) =     -196.88858623


--------------------------------------------------------------------------------------------------------




--------------------------------------- Iteration      1(   4)  ---------------------------------------


     EDDAV:  cpu time    2.4119: real time    2.7202
       DOS:  cpu time    0.0023: real time    0.0023
    --------------------------------------------
      LOOP:  cpu time    2.4141: real time    2.7225

 eigenvalue-minimisations  :  1744
 total energy-change (2. order) :-0.1141986E+02  (-0.1085268E+02)
 number of electron     109.0000000 magnetization 
 augmentation part      109.0000000 magnetization 

 Free energy of the ion-electron system (eV)
  ---------------------------------------------------
  alpha Z        PSCENC =       552.45264090
  Ewald energy   TEWEN  =     -5323.15544826
  -Hartree energ DENC   =      -786.93296615
  -exchange      EXHF   =         0.00000000
  -V(xc)+E(xc)   XCENC  =      -770.81230158
  PAW double counting   =      5171.05454107    -4356.08836938
  entropy T*S    EENTRO =        -0.09560312
  eigenvalues    EBANDS =       617.74612515
  atomic energy  EATOM  =      4687.48422623
  Solvation  Ediel_sol  =         0.00000000
  ---------------------------------------------------
  free energy    TOTEN  =      -208.34715514 eV

  energy without entropy =     -208.25155202  energy(sigma->0) =     -208.29935358


--------------------------------------------------------------------------------------------------------




--------------------------------------- Iteration      1(   5)  ---------------------------------------


     EDDAV:  cpu time    2.0496: real time    2.2925
       DOS:  cpu time    0.0013: real time    0.0013
    CHARGE:  cpu time    0.0510: real time    0.0630
    MIXING:  cpu time    0.0014: real time    0.0014
    --------------------------------------------
      LOOP:  cpu time    2.1034: real time    2.3583

 eigenvalue-minimisations  :  1744
 total energy-change (2. order) :-0.5789281E+00  (-0.5693253E+00)
 number of electron     109.0000051 magnetization 
 augmentation part       33.1617255 magnetization 

 Broyden mixing:
  rms(total) = 0.56568E+01    rms(broyden)= 0.56552E+01
  rms(prec ) = 0.66387E+01
  weight for this iteration     100.00

 Free energy of the ion-electron system (eV)
  ---------------------------------------------------
  alpha Z        PSCENC =       552.45264090
  Ewald energy   TEWEN  =     -5323.15544826
  -Hartree energ DENC   =      -786.93296615
  -exchange      EXHF   =         0.00000000
  -V(xc)+E(xc)   XCENC  =      -770.81230158
  PAW double counting   =      5171.05454107    -4356.08836938
  entropy T*S    EENTRO =        -0.09451931
  eigenvalues    EBANDS =       617.16611320
  atomic energy  EATOM  =      4687.48422623
  Solvation  Ediel_sol  =         0.00000000
  ---------------------------------------------------
  free energy    TOTEN  =      -208.92608329 eV

  energy without entropy =     -208.83156398  energy(sigma->0) =     -208.87882363


--------------------------------------------------------------------------------------------------------




--------------------------------------- Iteration      1(   6)  ---------------------------------------


    POTLOK:  cpu time    0.0317: real time    0.0559
    SETDIJ:  cpu time    0.0170: real time    0.0353
     EDDAV:  cpu time    2.4352: real time    2.4506
       DOS:  cpu time    0.0015: real time    0.0015
    CHARGE:  cpu time    0.0528: real time    0.0529
    MIXING:  cpu time    0.0017: real time    0.0017
    --------------------------------------------
      LOOP:  cpu time    2.5399: real time    2.5978

 eigenvalue-minimisations  :  2008
 total energy-change (2. order) :-0.1610324E+02  (-0.4575398E+02)
 number of electron     109.0000049 magnetization 
 augmentation part       45.9063716 magnetization 

 Broyden mixing:
  rms(total) = 0.76882E+01    rms(broyden)= 0.76870E+01
  rms(prec ) = 0.10629E+02
  weight for this iteration     100.00

 eigenvalues of (default mixing * dielectric matrix)
  average eigenvalue GAMMA=   0.3754
  0.3754

 Free energy of the ion-electron system (eV)
  ---------------------------------------------------
  alpha Z        PSCENC =       552.45264090
  Ewald energy   TEWEN  =     -5323.15544826
  -Hartree energ DENC   =      -587.82453876
  -exchange      EXHF   =         0.00000000
  -V(xc)+E(xc)   XCENC  =      -773.25326220
  PAW double counting   =      6266.78611094    -5433.68697886
  entropy T*S    EENTRO =        -0.13040745
  eigenvalues    EBANDS =       386.29833064
  atomic energy  EATOM  =      4687.48422623
  Solvation  Ediel_sol  =         0.00000000
  ---------------------------------------------------
  free energy    TOTEN  =      -225.02932682 eV

  energy without entropy =     -224.89891938  energy(sigma->0) =     -224.96412310


--------------------------------------------------------------------------------------------------------




--------------------------------------- Iteration      1(   7)  ---------------------------------------


    POTLOK:  cpu time    0.0292: real time    0.0293
    SETDIJ:  cpu time    0.0165: real time    0.0165
     EDDAV:  cpu time    3.3639: real time    4.3568
       DOS:  cpu time    0.0014: real time    0.0014
    CHARGE:  cpu time    0.0462: real time    0.0463
    MIXING:  cpu time    0.0016: real time    0.0016
    --------------------------------------------
      LOOP:  cpu time    3.4587: real time    4.4519

 eigenvalue-minimisations  :  2040
 total energy-change (2. order) : 0.3620892E+02  (-0.4673135E+02)
 number of electron     109.0000086 magnetization 
 augmentation part       41.1228533 magnetization 

 Broyden mixing:
  rms(total) = 0.39567E+01    rms(broyden)= 0.39548E+01
  rms(prec ) = 0.64609E+01
  weight for this iteration     100.00

 eigenvalues of (default mixing * dielectric matrix)
  average eigenvalue GAMMA=   0.6030
  0.9844  0.2215

 Free energy of the ion-electron system (eV)
  ---------------------------------------------------
  alpha Z        PSCENC =       552.45264090
  Ewald energy   TEWEN  =     -5323.15544826
  -Hartree energ DENC   =      -663.46920638
  -exchange      EXHF   =         0.00000000
  -V(xc)+E(xc)   XCENC  =      -769.38615703
  PAW double counting   =      6667.33095157    -5851.16946331
  entropy T*S    EENTRO =        -0.12764933
  eigenvalues    EBANDS =       511.21970027
  atomic energy  EATOM  =      4687.48422623
  Solvation  Ediel_sol  =         0.00000000
  ---------------------------------------------------
  free energy    TOTEN  =      -188.82040533 eV

  energy without entropy =     -188.69275600  energy(sigma->0) =     -188.75658067


--------------------------------------------------------------------------------------------------------




--------------------------------------- Iteration      1(   8)  ---------------------------------------


    POTLOK:  cpu time    0.0272: real time    0.0273
    SETDIJ:  cpu time    0.0167: real time    0.0167
     EDDAV:  cpu time    2.7127: real time    2.7161
       DOS:  cpu time    0.0136: real time    0.0136
    CHARGE:  cpu time    0.0759: real time    0.0760
    MIXING:  cpu time    0.0017: real time    0.0017
    --------------------------------------------
      LOOP:  cpu time    2.8478: real time    2.8514

 eigenvalue-minimisations  :  2104
 total energy-change (2. order) : 0.3416459E+01  (-0.1771055E+02)
 number of electron     109.0000048 magnetization 
 augmentation part       43.9293499 magnetization 

 Broyden mixing:
  rms(total) = 0.28578E+01    rms(broyden)= 0.28568E+01
  rms(prec ) = 0.47909E+01
  weight for this iteration     100.00

 eigenvalues of (default mixing * dielectric matrix)
  average eigenvalue GAMMA=   0.5324
  0.9476  0.4710  0.1785

 Free energy of the ion-electron system (eV)
  ---------------------------------------------------
  alpha Z        PSCENC =       552.45264090
  Ewald energy   TEWEN  =     -5323.15544826
  -Hartree energ DENC   =      -613.88379713
  -exchange      EXHF   =         0.00000000
  -V(xc)+E(xc)   XCENC  =      -770.62308849
  PAW double counting   =      7063.70026170    -6253.07966091
  entropy T*S    EENTRO =        -0.12455604
  eigenvalues    EBANDS =       471.82547527
  atomic energy  EATOM  =      4687.48422623
  Solvation  Ediel_sol  =         0.00000000
  ---------------------------------------------------
  free energy    TOTEN  =      -185.40394673 eV

  energy without entropy =     -185.27939070  energy(sigma->0) =     -185.34166871


--------------------------------------------------------------------------------------------------------




--------------------------------------- Iteration      1(   9)  ---------------------------------------


    POTLOK:  cpu time    0.0529: real time    0.0531
    SETDIJ:  cpu time    0.0284: real time    0.0285
     EDDAV:  cpu time    2.4464: real time    3.0773
       DOS:  cpu time    0.0015: real time    0.0015
    CHARGE:  cpu time    0.0528: real time    0.0529
    MIXING:  cpu time    0.0019: real time    0.0019
    --------------------------------------------
      LOOP:  cpu time    2.5839: real time    3.2150

 eigenvalue-minimisations  :  2096
 total energy-change (2. order) : 0.5353498E+01  (-0.4500076E+01)
 number of electron     109.0000071 magnetization 
 augmentation part       42.9612477 magnetization 

 Broyden mixing:
  rms(total) = 0.13731E+01    rms(broyden)= 0.13713E+01
  rms(prec ) = 0.18812E+01
  weight for this iteration     100.00

 eigenvalues of (default mixing * dielectric matrix)
  average eigenvalue GAMMA=   0.4445
  0.9210  0.4410  0.1820  0.2340

 Free energy of the ion-electron system (eV)
  ---------------------------------------------------
  alpha Z        PSCENC =       552.45264090
  Ewald energy   TEWEN  =     -5323.15544826
  -Hartree energ DENC   =      -623.09991317
  -exchange      EXHF   =         0.00000000
  -V(xc)+E(xc)   XCENC  =      -769.93402923
  PAW double counting   =      7153.27719361    -6345.15845736
  entropy T*S    EENTRO =        -0.12887060
  eigenvalues    EBANDS =       488.21220877
  atomic energy  EATOM  =      4687.48422623
  Solvation  Ediel_sol  =         0.00000000
  ---------------------------------------------------
  free energy    TOTEN  =      -180.05044911 eV

  energy without entropy =     -179.92157851  energy(sigma->0) =     -179.98601381


--------------------------------------------------------------------------------------------------------




--------------------------------------- Iteration      1(  10)  ---------------------------------------


    POTLOK:  cpu time    0.0301: real time    0.0302
    SETDIJ:  cpu time    0.0202: real time    0.0203
     EDDAV:  cpu time    2.3621: real time    2.3655
       DOS:  cpu time    0.0015: real time    0.0015
    CHARGE:  cpu time    0.0523: real time    0.0523
    MIXING:  cpu time    0.0017: real time    0.0017
    --------------------------------------------
      LOOP:  cpu time    2.4679: real time    2.4716

 eigenvalue-minimisations  :  1808
 total energy-change (2. order) : 0.9327478E+00  (-0.9834377E+00)
 number of electron     109.0000061 magnetization 
 augmentation part       42.5913042 magnetization 

 Broyden mixing:
  rms(total) = 0.92722E+00    rms(broyden)= 0.92690E+00
  rms(prec ) = 0.10142E+01
  weight for this iteration     100.00

 eigenvalues of (default mixing * dielectric matrix)
  average eigenvalue GAMMA=   0.5656
  0.9951  0.7210  0.7210  0.1777  0.2130

 Free energy of the ion-electron system (eV)
  ---------------------------------------------------
  alpha Z        PSCENC =       552.45264090
  Ewald energy   TEWEN  =     -5323.15544826
  -Hartree energ DENC   =      -624.17637274
  -exchange      EXHF   =         0.00000000
  -V(xc)+E(xc)   XCENC  =      -769.79325272
  PAW double counting   =      7181.24170652    -6373.61641181
  entropy T*S    EENTRO =        -0.12054690
  eigenvalues    EBANDS =       490.56575745
  atomic energy  EATOM  =      4687.48422623
  Solvation  Ediel_sol  =         0.00000000
  ---------------------------------------------------
  free energy    TOTEN  =      -179.11770133 eV

  energy without entropy =     -178.99715443  energy(sigma->0) =     -179.05742788


--------------------------------------------------------------------------------------------------------




--------------------------------------- Iteration      1(  11)  ---------------------------------------


    POTLOK:  cpu time    0.0402: real time    0.0404
    SETDIJ:  cpu time    0.0380: real time    0.0381
     EDDAV:  cpu time    2.9913: real time    3.9079
       DOS:  cpu time    0.0015: real time    0.0015
    CHARGE:  cpu time    0.0524: real time    0.0524
    MIXING:  cpu time    0.0018: real time    0.0018
    --------------------------------------------
      LOOP:  cpu time    3.1252: real time    4.0421

 eigenvalue-minimisations  :  2088
 total energy-change (2. order) :-0.3373800E+00  (-0.3111828E+00)
 number of electron     109.0000068 magnetization 
 augmentation part       42.9724525 magnetization 

 Broyden mixing:
  rms(total) = 0.10425E+01    rms(broyden)= 0.10423E+01
  rms(prec ) = 0.14557E+01
  weight for this iteration     100.00

 eigenvalues of (default mixing * dielectric matrix)
  average eigenvalue GAMMA=   0.6159
  1.2607  0.9318  0.9318  0.2237  0.1736  0.1736

 Free energy of the ion-electron system (eV)
  ---------------------------------------------------
  alpha Z        PSCENC =       552.45264090
  Ewald energy   TEWEN  =     -5323.15544826
  -Hartree energ DENC   =      -617.83639716
  -exchange      EXHF   =         0.00000000
  -V(xc)+E(xc)   XCENC  =      -769.76373500
  PAW double counting   =      7267.74760323    -6460.08614106
  entropy T*S    EENTRO =        -0.11790515
  eigenvalues    EBANDS =       483.82007495
  atomic energy  EATOM  =      4687.48422623
  Solvation  Ediel_sol  =         0.00000000
  ---------------------------------------------------
  free energy    TOTEN  =      -179.45508133 eV

  energy without entropy =     -179.33717618  energy(sigma->0) =     -179.39612876


--------------------------------------------------------------------------------------------------------




--------------------------------------- Iteration      1(  12)  ---------------------------------------


    POTLOK:  cpu time    0.0293: real time    0.0294
    SETDIJ:  cpu time    0.0164: real time    0.0284
     EDDAV:  cpu time    2.3217: real time    2.3452
       DOS:  cpu time    0.0015: real time    0.0015
    CHARGE:  cpu time    0.0626: real time    0.0627
    MIXING:  cpu time    0.0020: real time    0.0020
    --------------------------------------------
      LOOP:  cpu time    2.4335: real time    2.4693

 eigenvalue-minimisations  :  2048
 total energy-change (2. order) : 0.3317599E+00  (-0.2932810E+00)
 number of electron     109.0000065 magnetization 
 augmentation part       43.4578042 magnetization 

 Broyden mixing:
  rms(total) = 0.72950E+00    rms(broyden)= 0.72920E+00
  rms(prec ) = 0.10394E+01
  weight for this iteration     100.00

 eigenvalues of (default mixing * dielectric matrix)
  average eigenvalue GAMMA=   0.6547
  1.6435  1.0693  0.9131  0.4182  0.2084  0.1806  0.1500

 Free energy of the ion-electron system (eV)
  ---------------------------------------------------
  alpha Z        PSCENC =       552.45264090
  Ewald energy   TEWEN  =     -5323.15544826
  -Hartree energ DENC   =      -611.34029321
  -exchange      EXHF   =         0.00000000
  -V(xc)+E(xc)   XCENC  =      -769.48385081
  PAW double counting   =      7417.86083569    -6610.69914867
  entropy T*S    EENTRO =        -0.11990130
  eigenvalues    EBANDS =       477.87761806
  atomic energy  EATOM  =      4687.48422623
  Solvation  Ediel_sol  =         0.00000000
  ---------------------------------------------------
  free energy    TOTEN  =      -179.12332138 eV

  energy without entropy =     -179.00342008  energy(sigma->0) =     -179.06337073


--------------------------------------------------------------------------------------------------------




--------------------------------------- Iteration      1(  13)  ---------------------------------------


    POTLOK:  cpu time    0.0287: real time    0.0293
    SETDIJ:  cpu time    0.0158: real time    0.0159
     EDDAV:  cpu time    3.2209: real time    3.2261
       DOS:  cpu time    0.0016: real time    0.0016
    CHARGE:  cpu time    0.0991: real time    0.0992
    MIXING:  cpu time    0.0796: real time    0.0797
    --------------------------------------------
      LOOP:  cpu time    3.4457: real time    3.4517

 eigenvalue-minimisations  :  2160
 total energy-change (2. order) : 0.2543110E-01  (-0.1861588E+00)
 number of electron     109.0000062 magnetization 
 augmentation part       43.5187695 magnetization 

 Broyden mixing:
  rms(total) = 0.59010E+00    rms(broyden)= 0.58985E+00
  rms(prec ) = 0.89581E+00
  weight for this iteration     100.00

 eigenvalues of (default mixing * dielectric matrix)
  average eigenvalue GAMMA=   0.6828
  1.6964  1.6964  0.6791  0.6791  0.2045  0.1900  0.1771  0.1400

 Free energy of the ion-electron system (eV)
  ---------------------------------------------------
  alpha Z        PSCENC =       552.45264090
  Ewald energy   TEWEN  =     -5323.15544826
  -Hartree energ DENC   =      -611.11469154
  -exchange      EXHF   =         0.00000000
  -V(xc)+E(xc)   XCENC  =      -769.30855104
  PAW double counting   =      7477.16898658    -6670.59813234
  entropy T*S    EENTRO =        -0.12338922
  eigenvalues    EBANDS =       478.09646840
  atomic energy  EATOM  =      4687.48422623
  Solvation  Ediel_sol  =         0.00000000
  ---------------------------------------------------
  free energy    TOTEN  =      -179.09789028 eV

  energy without entropy =     -178.97450107  energy(sigma->0) =     -179.03619568


--------------------------------------------------------------------------------------------------------




--------------------------------------- Iteration      1(  14)  ---------------------------------------


    POTLOK:  cpu time    0.0412: real time    0.0413
    SETDIJ:  cpu time    0.0164: real time    0.0165
     EDDAV:  cpu time    3.1877: real time    3.1920
       DOS:  cpu time    0.0015: real time    0.0016
    CHARGE:  cpu time    0.0507: real time    0.0507
    MIXING:  cpu time    0.0020: real time    0.0020
    --------------------------------------------
      LOOP:  cpu time    3.2996: real time    3.3040

 eigenvalue-minimisations  :  2112
 total energy-change (2. order) : 0.2058202E+00  (-0.1191749E+00)
 number of electron     109.0000066 magnetization 
 augmentation part       43.3723258 magnetization 

 Broyden mixing:
  rms(total) = 0.27078E+00    rms(broyden)= 0.27060E+00
  rms(prec ) = 0.36908E+00
  weight for this iteration     100.00

 eigenvalues of (default mixing * dielectric matrix)
  average eigenvalue GAMMA=   0.6329
  1.7251  1.7251  0.6581  0.6581  0.2266  0.2266  0.1701  0.1701  0.1360

 Free energy of the ion-electron system (eV)
  ---------------------------------------------------
  alpha Z        PSCENC =       552.45264090
  Ewald energy   TEWEN  =     -5323.15544826
  -Hartree energ DENC   =      -613.04323505
  -exchange      EXHF   =         0.00000000
  -V(xc)+E(xc)   XCENC  =      -769.28583762
  PAW double counting   =      7492.49725233    -6686.69125401
  entropy T*S    EENTRO =        -0.11782928
  eigenvalues    EBANDS =       480.96741468
  atomic energy  EATOM  =      4687.48422623
  Solvation  Ediel_sol  =         0.00000000
  ---------------------------------------------------
  free energy    TOTEN  =      -178.89207008 eV

  energy without entropy =     -178.77424080  energy(sigma->0) =     -178.83315544


--------------------------------------------------------------------------------------------------------




--------------------------------------- Iteration      1(  15)  ---------------------------------------


    POTLOK:  cpu time    0.0281: real time    0.0283
    SETDIJ:  cpu time    0.0166: real time    0.0166
     EDDAV:  cpu time    2.2743: real time    2.2774
       DOS:  cpu time    0.0136: real time    0.0136
    CHARGE:  cpu time    0.0511: real time    0.0512
    MIXING:  cpu time    0.0023: real time    0.0023
    --------------------------------------------
      LOOP:  cpu time    2.3860: real time    2.3894

 eigenvalue-minimisations  :  1928
 total energy-change (2. order) : 0.1796103E-01  (-0.1385198E-01)
 number of electron     109.0000065 magnetization 
 augmentation part       43.3093466 magnetization 

 Broyden mixing:
  rms(total) = 0.19303E+00    rms(broyden)= 0.19301E+00
  rms(prec ) = 0.23643E+00
  weight for this iteration     100.00

 eigenvalues of (default mixing * dielectric matrix)
  average eigenvalue GAMMA=   0.7137
  2.4413  1.3476  0.8385  0.8050  0.8050  0.2143  0.1955  0.1749  0.1749  0.1401

 Free energy of the ion-electron system (eV)
  ---------------------------------------------------
  alpha Z        PSCENC =       552.45264090
  Ewald energy   TEWEN  =     -5323.15544826
  -Hartree energ DENC   =      -613.59953572
  -exchange      EXHF   =         0.00000000
  -V(xc)+E(xc)   XCENC  =      -769.26119404
  PAW double counting   =      7496.18218820    -6690.59248924
  entropy T*S    EENTRO =        -0.11865758
  eigenvalues    EBANDS =       481.73416046
  atomic energy  EATOM  =      4687.48422623
  Solvation  Ediel_sol  =         0.00000000
  ---------------------------------------------------
  free energy    TOTEN  =      -178.87410905 eV

  energy without entropy =     -178.75545147  energy(sigma->0) =     -178.81478026


--------------------------------------------------------------------------------------------------------




--------------------------------------- Iteration      1(  16)  ---------------------------------------


    POTLOK:  cpu time    0.0290: real time    0.0291
    SETDIJ:  cpu time    0.0169: real time    0.0169
     EDDAV:  cpu time    2.5550: real time    2.5588
       DOS:  cpu time    0.0014: real time    0.0014
    CHARGE:  cpu time    0.0492: real time    0.0492
    MIXING:  cpu time    0.0022: real time    0.0022
    --------------------------------------------
      LOOP:  cpu time    2.6537: real time    2.6578

 eigenvalue-minimisations  :  2128
 total energy-change (2. order) : 0.5498375E-02  (-0.8353667E-02)
 number of electron     109.0000065 magnetization 
 augmentation part       43.2236714 magnetization 

 Broyden mixing:
  rms(total) = 0.12090E+00    rms(broyden)= 0.12088E+00
  rms(prec ) = 0.19149E+00
  weight for this iteration     100.00

 eigenvalues of (default mixing * dielectric matrix)
  average eigenvalue GAMMA=   0.6982
  2.6428  1.1221  1.1221  0.8283  0.8283  0.2541  0.1989  0.1989  0.1410  0.1716
  0.1716

 Free energy of the ion-electron system (eV)
  ---------------------------------------------------
  alpha Z        PSCENC =       552.45264090
  Ewald energy   TEWEN  =     -5323.15544826
  -Hartree energ DENC   =      -614.32049864
  -exchange      EXHF   =         0.00000000
  -V(xc)+E(xc)   XCENC  =      -769.21803874
  PAW double counting   =      7515.04036884    -6710.26941729
  entropy T*S    EENTRO =        -0.11796430
  eigenvalues    EBANDS =       483.23552059
  atomic energy  EATOM  =      4687.48422623
  Solvation  Ediel_sol  =         0.00000000
  ---------------------------------------------------
  free energy    TOTEN  =      -178.86861068 eV

  energy without entropy =     -178.75064638  energy(sigma->0) =     -178.80962853


--------------------------------------------------------------------------------------------------------




--------------------------------------- Iteration      1(  17)  ---------------------------------------


    POTLOK:  cpu time    0.0287: real time    0.0289
    SETDIJ:  cpu time    0.0146: real time    0.0146
     EDDAV:  cpu time    2.3005: real time    2.7667
       DOS:  cpu time    0.0016: real time    0.0016
    CHARGE:  cpu time    0.0609: real time    0.0769
    MIXING:  cpu time    0.0100: real time    0.0100
    --------------------------------------------
      LOOP:  cpu time    2.4163: real time    2.8988

 eigenvalue-minimisations  :  1784
 total energy-change (2. order) : 0.8712980E-02  (-0.4932878E-02)
 number of electron     109.0000064 magnetization 
 augmentation part       43.2003156 magnetization 

 Broyden mixing:
  rms(total) = 0.80776E-01    rms(broyden)= 0.80765E-01
  rms(prec ) = 0.10949E+00
  weight for this iteration     100.00

 eigenvalues of (default mixing * dielectric matrix)
  average eigenvalue GAMMA=   0.7510
  2.6824  1.4974  1.4974  0.7726  0.7726  0.7190  0.2068  0.2068  0.1408  0.1774
  0.1774  0.1618

 Free energy of the ion-electron system (eV)
  ---------------------------------------------------
  alpha Z        PSCENC =       552.45264090
  Ewald energy   TEWEN  =     -5323.15544826
  -Hartree energ DENC   =      -614.40176925
  -exchange      EXHF   =         0.00000000
  -V(xc)+E(xc)   XCENC  =      -769.21633813
  PAW double counting   =      7519.36950443    -6714.84440715
  entropy T*S    EENTRO =        -0.11830045
  eigenvalues    EBANDS =       483.56999398
  atomic energy  EATOM  =      4687.48422623
  Solvation  Ediel_sol  =         0.00000000
  ---------------------------------------------------
  free energy    TOTEN  =      -178.85989770 eV

  energy without entropy =     -178.74159725  energy(sigma->0) =     -178.80074747


--------------------------------------------------------------------------------------------------------




--------------------------------------- Iteration      1(  18)  ---------------------------------------


    POTLOK:  cpu time    0.0413: real time    0.0614
    SETDIJ:  cpu time    0.0181: real time    0.0181
     EDDAV:  cpu time    2.3931: real time    2.6345
       DOS:  cpu time    0.0015: real time    0.0015
    CHARGE:  cpu time    0.0507: real time    0.0508
    MIXING:  cpu time    0.0025: real time    0.0025
    --------------------------------------------
      LOOP:  cpu time    2.5072: real time    2.7687

 eigenvalue-minimisations  :  1840
 total energy-change (2. order) : 0.2969280E-02  (-0.1613708E-02)
 number of electron     109.0000064 magnetization 
 augmentation part       43.1495164 magnetization 

 Broyden mixing:
  rms(total) = 0.46638E-01    rms(broyden)= 0.46626E-01
  rms(prec ) = 0.68002E-01
  weight for this iteration     100.00

 eigenvalues of (default mixing * dielectric matrix)
  average eigenvalue GAMMA=   0.7065
  2.6259  1.5106  1.5106  0.7757  0.7757  0.7183  0.2063  0.2063  0.2014  0.1409
  0.1821  0.1620  0.1682

 Free energy of the ion-electron system (eV)
  ---------------------------------------------------
  alpha Z        PSCENC =       552.45264090
  Ewald energy   TEWEN  =     -5323.15544826
  -Hartree energ DENC   =      -614.73584209
  -exchange      EXHF   =         0.00000000
  -V(xc)+E(xc)   XCENC  =      -769.20729077
  PAW double counting   =      7522.39318138    -6718.26147193
  entropy T*S    EENTRO =        -0.11803345
  eigenvalues    EBANDS =       484.29110957
  atomic energy  EATOM  =      4687.48422623
  Solvation  Ediel_sol  =         0.00000000
  ---------------------------------------------------
  free energy    TOTEN  =      -178.85692842 eV

  energy without entropy =     -178.73889497  energy(sigma->0) =     -178.79791169


--------------------------------------------------------------------------------------------------------




--------------------------------------- Iteration      1(  19)  ---------------------------------------


    POTLOK:  cpu time    0.0294: real time    0.0296
    SETDIJ:  cpu time    0.0172: real time    0.0172
     EDDAV:  cpu time    2.6210: real time    2.6254
       DOS:  cpu time    0.0015: real time    0.0015
    CHARGE:  cpu time    0.0494: real time    0.0495
    MIXING:  cpu time    0.0026: real time    0.0026
    --------------------------------------------
      LOOP:  cpu time    2.7211: real time    2.7258

 eigenvalue-minimisations  :  1960
 total energy-change (2. order) : 0.8208782E-03  (-0.5874585E-03)
 number of electron     109.0000064 magnetization 
 augmentation part       43.1444366 magnetization 

 Broyden mixing:
  rms(total) = 0.33345E-01    rms(broyden)= 0.33341E-01
  rms(prec ) = 0.44601E-01
  weight for this iteration     100.00

 eigenvalues of (default mixing * dielectric matrix)
  average eigenvalue GAMMA=   0.7323
  2.5392  1.6162  1.6162  0.8689  0.8689  0.7457  0.7457  0.2092  0.2092  0.1408
  0.1626  0.1818  0.1741  0.1741

 Free energy of the ion-electron system (eV)
  ---------------------------------------------------
  alpha Z        PSCENC =       552.45264090
  Ewald energy   TEWEN  =     -5323.15544826
  -Hartree energ DENC   =      -614.70178872
  -exchange      EXHF   =         0.00000000
  -V(xc)+E(xc)   XCENC  =      -769.21335747
  PAW double counting   =      7521.31172061    -6717.19421067
  entropy T*S    EENTRO =        -0.11775499
  eigenvalues    EBANDS =       484.27786483
  atomic energy  EATOM  =      4687.48422623
  Solvation  Ediel_sol  =         0.00000000
  ---------------------------------------------------
  free energy    TOTEN  =      -178.85610754 eV

  energy without entropy =     -178.73835255  energy(sigma->0) =     -178.79723005


--------------------------------------------------------------------------------------------------------




--------------------------------------- Iteration      1(  20)  ---------------------------------------


    POTLOK:  cpu time    0.0297: real time    0.0300
    SETDIJ:  cpu time    0.0165: real time    0.0165
     EDDAV:  cpu time    2.6424: real time    3.2478
       DOS:  cpu time    0.0015: real time    0.0015
    CHARGE:  cpu time    0.0491: real time    0.0852
    MIXING:  cpu time    0.0028: real time    0.0148
    --------------------------------------------
      LOOP:  cpu time    2.7420: real time    3.3958

 eigenvalue-minimisations  :  2016
 total energy-change (2. order) : 0.1281682E-03  (-0.2698085E-03)
 number of electron     109.0000064 magnetization 
 augmentation part       43.1328659 magnetization 

 Broyden mixing:
  rms(total) = 0.29778E-01    rms(broyden)= 0.29772E-01
  rms(prec ) = 0.43130E-01
  weight for this iteration     100.00

 eigenvalues of (default mixing * dielectric matrix)
  average eigenvalue GAMMA=   0.7324
  2.4893  1.7985  1.7985  1.0392  0.8989  0.7704  0.7704  0.2115  0.2031  0.2031
  0.1771  0.1771  0.1672  0.1412  0.1412

 Free energy of the ion-electron system (eV)
  ---------------------------------------------------
  alpha Z        PSCENC =       552.45264090
  Ewald energy   TEWEN  =     -5323.15544826
  -Hartree energ DENC   =      -614.76850219
  -exchange      EXHF   =         0.00000000
  -V(xc)+E(xc)   XCENC  =      -769.21768068
  PAW double counting   =      7520.50537735    -6716.45430744
  entropy T*S    EENTRO =        -0.11769110
  eigenvalues    EBANDS =       484.41540581
  atomic energy  EATOM  =      4687.48422623
  Solvation  Ediel_sol  =         0.00000000
  ---------------------------------------------------
  free energy    TOTEN  =      -178.85597937 eV

  energy without entropy =     -178.73828828  energy(sigma->0) =     -178.79713382


--------------------------------------------------------------------------------------------------------




--------------------------------------- Iteration      1(  21)  ---------------------------------------


    POTLOK:  cpu time    0.0296: real time    0.0538
    SETDIJ:  cpu time    0.0174: real time    0.0455
     EDDAV:  cpu time    2.3628: real time    3.6687
       DOS:  cpu time    0.0015: real time    0.0015
    CHARGE:  cpu time    0.0494: real time    0.0495
    MIXING:  cpu time    0.0027: real time    0.0028
    --------------------------------------------
      LOOP:  cpu time    2.4634: real time    3.8217

 eigenvalue-minimisations  :  1968
 total energy-change (2. order) : 0.4687504E-03  (-0.1920099E-03)
 number of electron     109.0000064 magnetization 
 augmentation part       43.1213752 magnetization 

 Broyden mixing:
  rms(total) = 0.12682E-01    rms(broyden)= 0.12673E-01
  rms(prec ) = 0.18431E-01
  weight for this iteration     100.00

 eigenvalues of (default mixing * dielectric matrix)
  average eigenvalue GAMMA=   0.7723
  2.4817  1.9854  1.9854  1.3090  0.9435  0.7763  0.7763  0.7077  0.2091  0.2091
  0.1854  0.1755  0.1755  0.1612  0.1409  0.1349

 Free energy of the ion-electron system (eV)
  ---------------------------------------------------
  alpha Z        PSCENC =       552.45264090
  Ewald energy   TEWEN  =     -5323.15544826
  -Hartree energ DENC   =      -614.85840974
  -exchange      EXHF   =         0.00000000
  -V(xc)+E(xc)   XCENC  =      -769.21825646
  PAW double counting   =      7520.54134579    -6716.56411580
  entropy T*S    EENTRO =        -0.11757819
  eigenvalues    EBANDS =       484.58008491
  atomic energy  EATOM  =      4687.48422623
  Solvation  Ediel_sol  =         0.00000000
  ---------------------------------------------------
  free energy    TOTEN  =      -178.85551062 eV

  energy without entropy =     -178.73793243  energy(sigma->0) =     -178.79672152


--------------------------------------------------------------------------------------------------------




--------------------------------------- Iteration      1(  22)  ---------------------------------------


    POTLOK:  cpu time    0.0291: real time    0.0292
    SETDIJ:  cpu time    0.0373: real time    0.0373
     EDDAV:  cpu time    2.4987: real time    3.1817
       DOS:  cpu time    0.0015: real time    0.0015
    CHARGE:  cpu time    0.0530: real time    0.0531
    MIXING:  cpu time    0.0029: real time    0.0029
    --------------------------------------------
      LOOP:  cpu time    2.6226: real time    3.3059

 eigenvalue-minimisations  :  2000
 total energy-change (2. order) :-0.4794345E-05  (-0.9743984E-04)
 number of electron     109.0000064 magnetization 
 augmentation part       43.1119169 magnetization 

 Broyden mixing:
  rms(total) = 0.89326E-02    rms(broyden)= 0.89304E-02
  rms(prec ) = 0.16271E-01
  weight for this iteration     100.00

 eigenvalues of (default mixing * dielectric matrix)
  average eigenvalue GAMMA=   0.7544
  2.3047  2.0908  2.0908  1.4972  0.9535  0.7755  0.7755  0.7703  0.2098  0.2098
  0.1883  0.1767  0.1742  0.1742  0.1585  0.1409  0.1348

 Free energy of the ion-electron system (eV)
  ---------------------------------------------------
  alpha Z        PSCENC =       552.45264090
  Ewald energy   TEWEN  =     -5323.15544826
  -Hartree energ DENC   =      -614.91508025
  -exchange      EXHF   =         0.00000000
  -V(xc)+E(xc)   XCENC  =      -769.21731589
  PAW double counting   =      7521.21864489    -6717.29829886
  entropy T*S    EENTRO =        -0.11746427
  eigenvalues    EBANDS =       484.69258010
  atomic energy  EATOM  =      4687.48422623
  Solvation  Ediel_sol  =         0.00000000
  ---------------------------------------------------
  free energy    TOTEN  =      -178.85551542 eV

  energy without entropy =     -178.73805115  energy(sigma->0) =     -178.79678328


--------------------------------------------------------------------------------------------------------




--------------------------------------- Iteration      1(  23)  ---------------------------------------


    POTLOK:  cpu time    0.0293: real time    0.0294
    SETDIJ:  cpu time    0.0168: real time    0.0168
     EDDAV:  cpu time    2.3668: real time    2.3703
       DOS:  cpu time    0.0015: real time    0.0015
    CHARGE:  cpu time    0.0501: real time    0.0502
    MIXING:  cpu time    0.0030: real time    0.0030
    --------------------------------------------
      LOOP:  cpu time    2.4675: real time    2.4713

 eigenvalue-minimisations  :  1792
 total energy-change (2. order) : 0.7014271E-04  (-0.4492496E-04)
 number of electron     109.0000064 magnetization 
 augmentation part       43.1092775 magnetization 

 Broyden mixing:
  rms(total) = 0.29345E-02    rms(broyden)= 0.29320E-02
  rms(prec ) = 0.43297E-02
  weight for this iteration     100.00

 eigenvalues of (default mixing * dielectric matrix)
  average eigenvalue GAMMA=   0.7409
  2.4416  2.0729  2.0729  1.3795  1.0144  0.7752  0.7752  0.6911  0.5410  0.2083
  0.2083  0.1912  0.1772  0.1772  0.1724  0.1621  0.1408  0.1340

 Free energy of the ion-electron system (eV)
  ---------------------------------------------------
  alpha Z        PSCENC =       552.45264090
  Ewald energy   TEWEN  =     -5323.15544826
  -Hartree energ DENC   =      -614.91193698
  -exchange      EXHF   =         0.00000000
  -V(xc)+E(xc)   XCENC  =      -769.21858202
  PAW double counting   =      7521.62071081    -6717.72591253
  entropy T*S    EENTRO =        -0.11747053
  eigenvalues    EBANDS =       484.71632711
  atomic energy  EATOM  =      4687.48422623
  Solvation  Ediel_sol  =         0.00000000
  ---------------------------------------------------
  free energy    TOTEN  =      -178.85544527 eV

  energy without entropy =     -178.73797474  energy(sigma->0) =     -178.79671001


--------------------------------------------------------------------------------------------------------




--------------------------------------- Iteration      1(  24)  ---------------------------------------


    POTLOK:  cpu time    0.0294: real time    0.0296
    SETDIJ:  cpu time    0.0167: real time    0.0167
     EDDAV:  cpu time    1.7715: real time    2.5296
       DOS:  cpu time    0.0015: real time    0.0015
    --------------------------------------------
      LOOP:  cpu time    1.8191: real time    2.5774

 eigenvalue-minimisations  :  1392
 total energy-change (2. order) :-0.1888098E-05  (-0.7146382E-05)
 number of electron     109.0000064 magnetization 
 augmentation part       43.1092775 magnetization 

 Free energy of the ion-electron system (eV)
  ---------------------------------------------------
  alpha Z        PSCENC =       552.45264090
  Ewald energy   TEWEN  =     -5323.15544826
  -Hartree energ DENC   =      -614.91327829
  -exchange      EXHF   =         0.00000000
  -V(xc)+E(xc)   XCENC  =      -769.21807600
  PAW double counting   =      7521.84341700    -6717.95092024
  entropy T*S    EENTRO =        -0.11753179
  eigenvalues    EBANDS =       484.71952329
  atomic energy  EATOM  =      4687.48422623
  Solvation  Ediel_sol  =         0.00000000
  ---------------------------------------------------
  free energy    TOTEN  =      -178.85544716 eV

  energy without entropy =     -178.73791537  energy(sigma->0) =     -178.79668127


--------------------------------------------------------------------------------------------------------




 average (electrostatic) potential at core
  the test charge radii are     1.2064  1.0103
  (the norm of the test charge is              1.0000)
       1 -39.0017       2 -39.2710       3 -39.3958       4 -39.4178       5 -39.0187
       6 -39.1372       7 -39.0187       8 -39.3803       9 -39.0034      10 -39.1733
      11 -39.1731      12 -39.2717      13 -39.0129      14 -39.1379      15 -39.3957
      16 -39.0121      17 -39.3803      18 -43.0238      19 -43.0226      20 -43.0058
 
 
 
 E-fermi :   6.2807     XC(G=0): -12.6490     alpha+bet :-15.2488


 k-point     1 :       0.0000    0.0000    0.0000
  band No.  band energies     occupation 
      1      -0.6020      2.00000
      2       1.1505      2.00000
      3       1.1878      2.00000
      4       2.6876      2.00000
      5       2.8675      2.00000
      6       2.8950      2.00000
      7       2.9571      2.00000
      8       3.0047      2.00000
      9       3.3828      2.00000
     10       3.3907      2.00000
     11       3.6398      2.00000
     12       3.6469      2.00000
     13       3.7147      2.00000
     14       3.7285      2.00000
     15       3.7989      2.00000
     16       3.8362      2.00000
     17       3.9495      2.00000
     18       4.0022      2.00000
     19       4.0081      2.00000
     20       4.0244      2.00000
     21       4.1710      2.00000
     22       4.2550      2.00000
     23       4.2594      2.00000
     24       4.3525      2.00000
     25       4.4333      2.00000
     26       4.4824      2.00000
     27       4.5180      2.00000
     28       4.5409      2.00000
     29       4.5760      2.00000
     30       4.5785      2.00000
     31       4.6254      2.00000
     32       4.6614      2.00000
     33       4.7840      2.00000
     34       4.7957      2.00000
     35       4.9692      2.00000
     36       4.9914      2.00000
     37       5.1186      2.00000
     38       5.2426      2.00000
     39       5.2861      2.00000
     40       5.3294      2.00000
     41       5.3571      2.00000
     42       5.4195      2.00000
     43       5.5033      2.00000
     44       5.5142      2.00000
     45       5.5483      2.00000
     46       5.6953      2.00000
     47       5.8068      2.00000
     48       6.0121      1.99985
     49       6.0577      1.99838
     50       6.1900      1.80026
     51       6.2108      1.67707
     52       6.2398      1.43666
     53       6.2957      0.83136
     54       6.3085      0.69353
     55       6.3187      0.59041
     56       6.5077      0.00132
     57       6.5374      0.00028
     58       6.5951      0.00001
     59       6.7644      0.00000
     60       6.8163      0.00000
     61       7.0360      0.00000
     62       7.1041      0.00000
     63       7.1079      0.00000
     64       7.1092      0.00000
     65       7.1539      0.00000
     66       7.3579      0.00000
     67       7.3591      0.00000
     68       7.4148      0.00000

 k-point     2 :       0.5000    0.0000    0.0000
  band No.  band energies     occupation 
      1       0.2967      2.00000
      2       0.6926      2.00000
      3       1.5396      2.00000
      4       1.6982      2.00000
      5       2.4046      2.00000
      6       2.4426      2.00000
      7       2.8173      2.00000
      8       2.9485      2.00000
      9       2.9658      2.00000
     10       3.3967      2.00000
     11       3.6009      2.00000
     12       3.6538      2.00000
     13       3.7082      2.00000
     14       3.8524      2.00000
     15       3.8664      2.00000
     16       3.8675      2.00000
     17       3.9376      2.00000
     18       4.0134      2.00000
     19       4.0218      2.00000
     20       4.1273      2.00000
     21       4.1294      2.00000
     22       4.2901      2.00000
     23       4.3115      2.00000
     24       4.3522      2.00000
     25       4.3980      2.00000
     26       4.5251      2.00000
     27       4.6809      2.00000
     28       4.6818      2.00000
     29       4.7186      2.00000
     30       4.7780      2.00000
     31       4.7826      2.00000
     32       4.9388      2.00000
     33       4.9578      2.00000
     34       4.9727      2.00000
     35       4.9824      2.00000
     36       5.1417      2.00000
     37       5.2962      2.00000
     38       5.3572      2.00000
     39       5.3578      2.00000
     40       5.4564      2.00000
     41       5.4671      2.00000
     42       5.4904      2.00000
     43       5.5214      2.00000
     44       5.5258      2.00000
     45       5.6022      2.00000
     46       5.6108      2.00000
     47       5.6684      2.00000
     48       5.7251      2.00000
     49       5.7378      2.00000
     50       5.7664      2.00000
     51       5.8844      2.00000
     52       5.8914      2.00000
     53       5.9938      1.99995
     54       6.0094      1.99987
     55       6.1498      1.93572
     56       6.2093      1.68719
     57       6.8415      0.00000
     58       6.9902      0.00000
     59       6.9974      0.00000
     60       7.0232      0.00000
     61       7.0594      0.00000
     62       7.0649      0.00000
     63       7.2546      0.00000
     64       7.3865      0.00000
     65       7.4569      0.00000
     66       7.5796      0.00000
     67       7.6042      0.00000
     68       7.6071      0.00000

 k-point     3 :       0.0000    0.5000    0.0000
  band No.  band energies     occupation 
      1      -0.1409      2.00000
      2      -0.1009      2.00000
      3       2.4802      2.00000
      4       2.5019      2.00000
      5       2.7572      2.00000
      6       2.8348      2.00000
      7       3.1568      2.00000
      8       3.1971      2.00000
      9       3.4666      2.00000
     10       3.4980      2.00000
     11       3.5345      2.00000
     12       3.5553      2.00000
     13       3.5766      2.00000
     14       3.5831      2.00000
     15       3.7703      2.00000
     16       3.8307      2.00000
     17       3.8850      2.00000
     18       3.9086      2.00000
     19       3.9219      2.00000
     20       3.9702      2.00000
     21       4.1726      2.00000
     22       4.2552      2.00000
     23       4.3050      2.00000
     24       4.3572      2.00000
     25       4.4107      2.00000
     26       4.4717      2.00000
     27       4.4770      2.00000
     28       4.4835      2.00000
     29       4.5424      2.00000
     30       4.5588      2.00000
     31       4.6033      2.00000
     32       4.6598      2.00000
     33       4.7587      2.00000
     34       4.9581      2.00000
[...]
     18       4.0869      2.00000
     19       4.1101      2.00000
     20       4.3683      2.00000
     21       4.3936      2.00000
     22       4.6071      2.00000
     23       4.6360      2.00000
     24       4.6440      2.00000
     25       4.6835      2.00000
     26       4.8812      2.00000
     27       4.8868      2.00000
     28       4.9404      2.00000
     29       4.9421      2.00000
     30       5.1004      2.00000
     31       5.2015      2.00000
     32       5.2164      2.00000
     33       5.2865      2.00000
     34       5.3090      2.00000
     35       5.3866      2.00000
     36       5.4343      2.00000
     37       5.4965      2.00000
     38       5.6052      2.00000
     39       5.6067      2.00000
     40       5.7352      2.00000
     41       5.7363      2.00000
     42       5.8116      2.00000
     43       5.8575      2.00000
     44       5.9664      2.00000
     45       6.0714      2.00000
     46       6.0999      2.00000
     47       6.1206      2.00000
     48       6.1722      2.00000
     49       6.1753      2.00000
     50       6.1931      2.00000
     51       6.2112      2.00000
     52       6.3055      1.99960
     53       6.3547      1.99555
     54       6.3811      1.98654
     55       6.4144      1.95461
     56       6.4215      1.94258
     57       6.5268      1.31839
     58       7.0518      0.00000
     59       7.0632      0.00000
     60       7.2903      0.00000
     61       7.3995      0.00000
     62       7.4723      0.00000
     63       7.4789      0.00000
     64       7.4961      0.00000
     65       7.5678      0.00000
     66       7.6497      0.00000
     67       7.6887      0.00000
     68       7.6970      0.00000

 k-point     7 :       0.0000    0.5000    0.3333
  band No.  band energies     occupation 
      1       1.0878      2.00000
      2       1.1359      2.00000
      3       2.9075      2.00000
      4       3.0583      2.00000
      5       3.1622      2.00000
      6       3.2447      2.00000
      7       3.2837      2.00000
      8       3.2917      2.00000
      9       3.4326      2.00000
     10       3.4810      2.00000
     11       3.4928      2.00000
     12       3.5229      2.00000
     13       3.7747      2.00000
     14       3.7809      2.00000
     15       3.9085      2.00000
     16       3.9795      2.00000
     17       4.0740      2.00000
     18       4.0946      2.00000
     19       4.1328      2.00000
     20       4.1867      2.00000
     21       4.1931      2.00000
     22       4.2655      2.00000
     23       4.6491      2.00000
     24       4.7757      2.00000
     25       4.8050      2.00000
     26       4.8455      2.00000
     27       4.8587      2.00000
     28       4.8918      2.00000
     29       4.9475      2.00000
     30       4.9617      2.00000
     31       4.9653      2.00000
     32       5.2507      2.00000
     33       5.2545      2.00000
     34       5.3373      2.00000
     35       5.3795      2.00000
     36       5.4829      2.00000
     37       5.5815      2.00000
     38       5.5878      2.00000
     39       5.6268      2.00000
     40       5.6432      2.00000
     41       5.8393      2.00000
     42       5.8811      2.00000
     43       5.9012      2.00000
     44       5.9164      2.00000
     45       5.9937      2.00000
     46       6.0185      2.00000
     47       6.0342      2.00000
     48       6.0663      2.00000
     49       6.1493      2.00000
     50       6.1829      2.00000
     51       6.1923      2.00000
     52       6.1996      2.00000
     53       6.2280      2.00000
     54       6.2852      1.99987
     55       6.5323      1.26117
     56       6.5488      1.07927
     57       6.6918      0.05457
     58       6.7575      0.00435
     59       7.2916      0.00000
     60       7.3572      0.00000
     61       7.4476      0.00000
     62       7.4553      0.00000
     63       7.4830      0.00000
     64       7.5748      0.00000
     65       7.6987      0.00000
     66       7.7141      0.00000
     67       7.7682      0.00000
     68       7.7880      0.00000

 k-point     8 :       0.5000    0.5000    0.3333
  band No.  band energies     occupation 
      1       1.6454      2.00000
      2       1.7623      2.00000
      3       2.1773      2.00000
      4       2.2911      2.00000
      5       2.8396      2.00000
      6       3.0297      2.00000
      7       3.3969      2.00000
      8       3.3989      2.00000
      9       3.4763      2.00000
     10       3.5060      2.00000
     11       3.6380      2.00000
     12       3.6515      2.00000
     13       3.8066      2.00000
     14       3.8624      2.00000
     15       3.8679      2.00000
     16       3.8824      2.00000
     17       3.9514      2.00000
     18       3.9522      2.00000
     19       4.0004      2.00000
     20       4.0154      2.00000
     21       4.0727      2.00000
     22       4.0792      2.00000
     23       4.6857      2.00000
     24       4.8374      2.00000
     25       4.8829      2.00000
     26       4.9404      2.00000
     27       4.9471      2.00000
     28       4.9931      2.00000
     29       5.0647      2.00000
     30       5.1865      2.00000
     31       5.2031      2.00000
     32       5.2607      2.00000
     33       5.3452      2.00000
     34       5.3876      2.00000
     35       5.4260      2.00000
     36       5.4696      2.00000
     37       5.5951      2.00000
     38       5.6069      2.00000
     39       5.6627      2.00000
     40       5.6774      2.00000
     41       5.6896      2.00000
     42       5.7186      2.00000
     43       5.9064      2.00000
     44       5.9187      2.00000
     45       5.9998      2.00000
     46       6.0631      2.00000
     47       6.1029      2.00000
     48       6.1046      2.00000
     49       6.2537      1.99998
     50       6.2627      1.99997
     51       6.3601      1.99436
     52       6.4093      1.96178
     53       6.5164      1.42329
     54       6.5273      1.31409
     55       6.5915      0.61438
     56       6.6767      0.08732
     57       6.7417      0.00858
     58       6.7446      0.00761
     59       6.9383      0.00000
     60       6.9886      0.00000
     61       7.0704      0.00000
     62       7.1406      0.00000
     63       7.3881      0.00000
     64       7.4319      0.00000
     65       7.4907      0.00000
     66       7.5305      0.00000
     67       7.5380      0.00000
     68       7.6098      0.00000


--------------------------------------------------------------------------------------------------------


 soft charge-density along one line, spin component           1
         0         1         2         3         4         5         6         7         8         9
 total charge-density along one line
 
 pseudopotential strength for first ion, spin component:           1
 -0.952  -0.000  -0.007   0.000  -0.004  -1.482  -0.000  -0.007
 -0.000  -0.971   0.000   0.001  -0.000  -0.000  -1.501   0.000
 -0.007   0.000  -0.967  -0.000  -0.002  -0.007   0.000  -1.497
  0.000   0.001  -0.000  -0.947  -0.000   0.000   0.001  -0.000
 -0.004  -0.000  -0.002  -0.000  -0.947  -0.004  -0.000  -0.001
 -1.482  -0.000  -0.007   0.000  -0.004  -1.962  -0.000  -0.007
 -0.000  -1.501   0.000   0.001  -0.000  -0.000  -1.980   0.000
 -0.007   0.000  -1.497  -0.000  -0.001  -0.007   0.000  -1.976
  0.000   0.001  -0.000  -1.477  -0.000   0.000   0.000  -0.000
 -0.004  -0.000  -0.001  -0.000  -1.478  -0.004  -0.000  -0.001
 -0.001  -0.000   0.003   0.000  -0.002  -0.001  -0.000   0.003
  0.003   0.000  -0.006  -0.000   0.004   0.002   0.000  -0.006
  0.002  -0.000  -0.001  -0.000  -0.001   0.002  -0.000  -0.002
 -0.000   0.000  -0.000   0.002   0.000  -0.000   0.000  -0.000
  0.002  -0.000  -0.001  -0.000   0.003   0.002  -0.000  -0.002
 -0.000   0.000   0.001   0.000   0.000  -0.001   0.000   0.001
  0.000  -0.000   0.000  -0.001  -0.000   0.000  -0.000   0.000
 -0.001   0.000   0.001   0.000  -0.001  -0.001   0.000   0.001
 total augmentation occupancy for first ion, spin component:           1
  0.512  -0.000  -0.068   0.000  -0.132  -0.855  -0.000   0.130  -0.000   0.218  -0.001  -0.000  -0.020  -0.000   0.001  -0.000
 -0.000   0.467  -0.000  -0.069  -0.000   0.000  -0.775   0.000   0.132   0.000  -0.000   0.000  -0.000  -0.007  -0.000  -0.000
 -0.068  -0.000   0.523  -0.000   0.134   0.132   0.000  -0.878   0.000  -0.234  -0.004   0.000   0.005   0.000   0.001  -0.000
  0.000  -0.069  -0.000   0.787  -0.000  -0.000   0.130   0.000  -1.343   0.000   0.000   0.000  -0.000  -0.027   0.000  -0.000
 -0.132  -0.000   0.134  -0.000   0.667   0.220   0.000  -0.231   0.000  -1.129   0.007   0.000   0.016   0.000  -0.010   0.001
 -0.855   0.000   0.132  -0.000   0.220   2.073   0.000  -0.139   0.000  -0.190   0.002   0.000   0.003   0.000  -0.004  -0.001
 -0.000  -0.775   0.000   0.130   0.000   0.000   1.952  -0.000  -0.117  -0.000   0.000  -0.000   0.000   0.016   0.000   0.000
  0.130   0.000  -0.878   0.000  -0.231  -0.139  -0.000   2.041  -0.000   0.206  -0.007  -0.000   0.011  -0.000  -0.000   0.001
 -0.000   0.132   0.000  -1.343   0.000   0.000  -0.117  -0.000   2.509  -0.000  -0.000  -0.000   0.000   0.001  -0.000   0.000
  0.218   0.000  -0.234   0.000  -1.129  -0.190  -0.000   0.206  -0.000   2.309   0.008  -0.000   0.002  -0.000  -0.005  -0.000
 -0.001  -0.000  -0.004   0.000   0.007   0.002   0.000  -0.007  -0.000   0.008   2.061   0.049  -0.015  -0.000  -0.041  -0.000
 -0.000   0.000   0.000   0.000   0.000   0.000  -0.000  -0.000  -0.000  -0.000   0.049   0.001   0.000   0.000   0.001   0.000
 -0.020  -0.000   0.005  -0.000   0.016   0.003   0.000   0.011   0.000   0.002  -0.015   0.000   0.368  -0.000   0.004   0.011
 -0.000  -0.007   0.000  -0.027   0.000   0.000   0.016  -0.000   0.001  -0.000  -0.000   0.000  -0.000   0.373  -0.000  -0.000
  0.001  -0.000   0.001   0.000  -0.010  -0.004   0.000  -0.000  -0.000  -0.005  -0.041   0.001   0.004  -0.000   0.372   0.000
 -0.000  -0.000  -0.000  -0.000   0.001  -0.001   0.000   0.001   0.000  -0.000  -0.000   0.000   0.011  -0.000   0.000   0.000
 -0.000  -0.000  -0.000  -0.001   0.000   0.000   0.000   0.000  -0.000  -0.000   0.000   0.000  -0.000   0.011  -0.000  -0.000
  0.000  -0.000  -0.000   0.000   0.000  -0.002   0.000   0.001  -0.000  -0.002  -0.001   0.000   0.000  -0.000   0.010   0.000


------------------------ aborting loop because EDIFF is reached ----------------------------------------


    CHARGE:  cpu time    0.0504: real time    0.0505
    FORLOC:  cpu time    0.0082: real time    0.0083
    FORNL :  cpu time    1.1665: real time    1.1679
    STRESS:  cpu time    1.2417: real time    1.2670
    FORCOR:  cpu time    0.0359: real time    0.0360
    FORHAR:  cpu time    0.0135: real time    0.0135
    MIXING:  cpu time    0.0017: real time    0.0017
    OFIELD:  cpu time    0.0001: real time    0.0001

  FORCE on cell =-STRESS in cart. coord.  units (eV):
  Direction    XX          YY          ZZ          XY          YZ          ZX
  --------------------------------------------------------------------------------------
  Alpha Z   568.83833   568.83833   568.83833
  Ewald   -1838.45244 -1756.41350 -1782.15155   -13.83233    -0.01961    -0.00928
  Hartree   150.14142   233.43909   218.66359    -9.81778     0.00057    -0.00080
  E(xc)    -498.75929  -498.39494  -497.76469     0.24667     0.00082     0.00044
  Local     409.03641   247.18856   286.91002    23.13941     0.01609     0.00973
  n-local   -89.12431   -91.47572   -90.45822     0.38844     0.00031     0.00167
  augment   449.28350   448.66543   447.90103    -0.38769    -0.00258    -0.00133
  Kinetic   848.90709   848.07410   847.90241     0.25338     0.00418     0.00023
  Fock        0.00000     0.00000     0.00000     0.00000     0.00000     0.00000
  -------------------------------------------------------------------------------------
  Total      -0.12929    -0.07865    -0.15908    -0.00991    -0.00023     0.00066
  in kB      -0.82330    -0.50084    -1.01297    -0.06313    -0.00144     0.00422
  external pressure =       -0.78 kB  Pullay stress =        0.00 kB


 VOLUME and BASIS-vectors are now :
 -----------------------------------------------------------------------------
  energy-cutoff  :      267.88
  volume of cell :      251.61
      direct lattice vectors                 reciprocal lattice vectors
     6.352525521 -0.059188342 -0.000237448     0.157699420  0.030235478 -0.000000912
    -1.832920794  9.559979350  0.002118926     0.000976359  0.104789928  0.000019983
     0.000176073 -0.000793139  4.150494922     0.000008523 -0.000051768  0.240935112

  length of vectors
     6.352801257  9.734105418  4.150495001     0.160571763  0.104794478  0.240935117


 FORCES acting on ions
    electron-ion (+dipol)            ewald-force                    non-local-force                 convergence-correction
 -----------------------------------------------------------------------------------------------
   0.281E+02 0.110E+02 -.221E-01   -.290E+02 -.114E+02 0.246E-01   0.891E+00 0.377E+00 -.164E-02   0.944E-02 -.142E-01 -.174E-03
   0.521E+02 -.789E+01 0.694E-02   -.525E+02 0.777E+01 -.105E-01   0.342E+00 0.113E+00 0.343E-02   0.400E-02 0.930E-02 0.281E-04
   -.304E+02 -.473E+01 -.305E-01   0.308E+02 0.485E+01 0.339E-01   -.412E+00 -.671E-01 -.277E-02   -.645E-02 -.490E-01 -.661E-04
   -.812E-02 0.122E-01 0.201E-01   0.872E-02 -.118E-01 -.215E-01   -.587E-03 -.310E-03 0.130E-02   -.490E-04 -.499E-03 0.105E-03
   -.258E+02 -.196E+01 0.203E-01   0.264E+02 0.164E+01 -.249E-01   -.565E+00 0.307E+00 0.423E-02   -.325E-02 0.126E-01 0.152E-03
   -.283E+02 -.979E+01 -.872E-02   0.288E+02 0.985E+01 0.124E-01   -.481E+00 -.300E-01 -.302E-02   -.143E-01 -.355E-01 -.650E-04
   0.258E+02 0.197E+01 0.121E-01   -.264E+02 -.165E+01 -.149E-01   0.564E+00 -.307E+00 0.281E-02   0.326E-02 -.132E-01 0.569E-04
   0.333E+02 0.145E+02 -.608E-01   -.336E+02 -.147E+02 0.619E-01   0.301E+00 0.216E+00 -.233E-03   0.125E-01 -.466E-01 -.150E-03
   -.281E+02 -.110E+02 -.646E-02   0.290E+02 0.114E+02 0.622E-02   -.890E+00 -.380E+00 0.582E-03   -.941E-02 0.149E-01 0.281E-04
   -.242E+02 -.101E+02 0.263E-02   0.246E+02 0.101E+02 -.292E-02   -.459E+00 -.906E-01 0.245E-03   0.127E-02 0.372E-01 0.116E-03
   0.242E+02 0.101E+02 -.962E-02   -.247E+02 -.101E+02 0.136E-01   0.459E+00 0.910E-01 -.348E-02   -.130E-02 -.372E-01 -.663E-04
   -.521E+02 0.791E+01 0.169E-01   0.525E+02 -.779E+01 -.190E-01   -.342E+00 -.112E+00 0.183E-02   -.424E-02 -.101E-01 0.134E-03
   0.338E+02 0.187E+01 0.284E-03   -.347E+02 -.227E+01 -.228E-02   0.860E+00 0.366E+00 0.229E-02   0.508E-02 0.335E-01 -.725E-04
   0.283E+02 0.977E+01 0.401E-02   -.288E+02 -.983E+01 -.392E-02   0.481E+00 0.284E-01 0.369E-03   0.142E-01 0.361E-01 -.355E-04
   0.304E+02 0.470E+01 0.406E-02   -.308E+02 -.482E+01 -.183E-02   0.412E+00 0.659E-01 -.161E-02   0.638E-02 0.494E-01 -.113E-03
   -.338E+02 -.185E+01 -.174E-01   0.346E+02 0.226E+01 0.188E-01   -.861E+00 -.366E+00 -.125E-02   -.525E-02 -.339E-01 0.238E-04
   -.333E+02 -.145E+02 -.335E-01   0.336E+02 0.146E+02 0.315E-01   -.301E+00 -.217E+00 0.207E-02   -.121E-01 0.470E-01 0.108E-03
   0.174E+02 0.209E+02 0.433E-01   -.176E+02 -.215E+02 -.450E-01   0.240E+00 0.648E+00 0.184E-02   0.120E-01 -.348E-01 0.273E-04
   -.174E+02 -.209E+02 0.299E-01   0.177E+02 0.215E+02 -.334E-01   -.244E+00 -.650E+00 0.332E-02   -.116E-01 0.345E-01 0.153E-03
   0.206E-01 -.618E-01 0.237E-01   -.230E-01 0.634E-01 -.228E-01   0.214E-02 -.245E-02 -.157E-04   0.883E-04 0.534E-03 -.256E-03
 -----------------------------------------------------------------------------------------------
   0.174E-02 0.170E-02 -.494E-02   -.373E-13 -.489E-13 -.141E-13   -.283E-02 -.992E-02 0.103E-01   0.220E-03 0.186E-03 -.651E-04
 
 
 POSITION                                       TOTAL-FORCE (eV/Angst)
 -----------------------------------------------------------------------------------
      2.59422      4.76172      3.59837        -0.000242     -0.004163      0.000468
      3.57723     -0.00744      3.59917         0.001122      0.000317     -0.000332
      4.92900      5.70187      3.59853         0.000865      0.004177      0.000292
      3.68847      9.05417      1.52583         0.000009     -0.000034     -0.000291
      1.53949      0.47752      1.52421        -0.001427      0.001027     -0.000465
      0.55463      5.24487      1.52322         0.003406      0.001572      0.000296
      1.31785      8.13022      1.52521         0.001694     -0.000545     -0.000188
      2.99666      6.21577      1.52351        -0.006923      0.000275      0.000394
      0.26401      3.84515      3.59862        -0.000006      0.003616      0.000102
      1.84579      1.90316      3.59918         0.001830     -0.000931     -0.000201
      1.01207      6.70377      3.59910        -0.001753      0.001088      0.000185
     -0.71974      8.61434      3.60094        -0.000854     -0.000147     -0.000419
      3.87781      1.41429      1.52398         0.005638     -0.005218     -0.000047
      2.30336      3.36284      1.52345        -0.003635     -0.002075      0.000156
      4.28160      2.84564      3.59878        -0.001001     -0.004153      0.000243
     -1.02030      7.19334      1.52447        -0.005578      0.005529     -0.000043
     -0.13889      2.39185      1.52384         0.006846     -0.000204     -0.000140
      3.33556      7.62256      3.60017        -0.001580      0.000661     -0.000057
      5.87436      0.92490      3.59935         0.001690     -0.000879     -0.000243
      4.60542      4.27396      1.52345        -0.000101      0.000087      0.000290
 -----------------------------------------------------------------------------------
    total drift:                               -0.000874     -0.008032      0.005291


--------------------------------------------------------------------------------------------------------



  FREE ENERGIE OF THE ION-ELECTRON SYSTEM (eV)
  ---------------------------------------------------
  free  energy   TOTEN  =      -179.03912237 eV

  energy  without entropy=     -178.92645152  energy(sigma->0) =     -178.98278695
 
 d Force = 0.2746462E-04[ 0.521E-06, 0.544E-04]  d Energy = 0.6770268E-04-0.402E-04
 d Force = 0.2196761E-01[ 0.215E-01, 0.225E-01]  d Ewald  = 0.4809979E+00-0.459E+00


--------------------------------------------------------------------------------------------------------


    POTLOK:  cpu time    0.0472: real time    0.0473


--------------------------------------------------------------------------------------------------------




--------------------------------------------------------------------------------------------------------


  
 reached required accuracy - stopping structural energy minimisation
     LOOP+:  cpu time   15.9353: real time   16.9288
    4ORBIT:  cpu time    0.0000: real time    0.0000

 total amount of memory used by VASP MPI-rank0    48221. kBytes
=======================================================================

   base      :      30000. kBytes
   nonl-proj :       6801. kBytes
   fftplans  :       1515. kBytes
   grid      :       3171. kBytes
   one-center:        311. kBytes
   wavefun   :       6423. kBytes
 
  
  
 General timing and accounting informations for this job:
 ========================================================
  
                  Total CPU time used (sec):      410.238
                            User time (sec):      407.425
                          System time (sec):        2.813
                         Elapsed time (sec):      468.293
  
                   Maximum memory used (kb):      183640.
                   Average memory used (kb):           0.
  
                          Minor page faults:       385920
                          Major page faults:            0
                 Voluntary context switches:          399
