unknown system                          
           1
     6.365306    0.000000    0.000000
    -1.747375    9.543713    0.000000
     0.000325   -0.001706    4.264655
   V    Fe
  17   3
Direct configuration=     1
   0.55528200  0.50228900  0.86677700
   0.56308000  0.00273500  0.86726900
   0.95003100  0.60260400  0.86659200
   0.85544100  0.95241400  0.36738300
   0.25607400  0.05129900  0.36722600
   0.24876600  0.55126200  0.36659900
   0.45482500  0.85357300  0.36712600
   0.65952600  0.65372200  0.36680400
   0.15580700  0.40252900  0.86658200
   0.34723700  0.20173300  0.86706000
   0.36362900  0.70299200  0.86679800
   0.14772800  0.90209100  0.86717900
   0.65718100  0.15191300  0.36740100
   0.46218600  0.35353500  0.36687600
   0.76091200  0.30235500  0.86721500
   0.05370400  0.75299800  0.36679300
   0.05134900  0.25114400  0.36689600
   0.75775100  0.80171600  0.86698000
   0.95293800  0.10304800  0.86726400
   0.85558800  0.45245900  0.36680100
unknown system                          
           1
     6.230159   -0.006839   -0.000154
    -1.720528    9.366624    0.000493
     0.000217   -0.001473    4.148228
   V    Fe
  17   3
Direct configuration=     2
   0.55337446  0.50161119  0.86675655
   0.56382165  0.00282900  0.86729032
   0.95009556  0.60241733  0.86662465
   0.85542073  0.95241956  0.36732243
   0.25699959  0.05127605  0.36724001
   0.24742252  0.55076450  0.36661737
   0.45388322  0.85359087  0.36711802
   0.66032791  0.65397382  0.36678189
   0.15766405  0.40320306  0.86665666
   0.34718893  0.20159278  0.86706835
   0.36371032  0.70318622  0.86680556
   0.14699875  0.90200623  0.86716957
   0.65552753  0.15162445  0.36733840
   0.46352735  0.35401993  0.36689648
   0.76085573  0.30250694  0.86713515
   0.05534958  0.75327491  0.36683365
   0.05056315  0.25088819  0.36694014
   0.75712258  0.80186417  0.86699621
   0.95362945  0.10292792  0.86725162
   0.85555195  0.45243387  0.36677796
unknown system                          
           1
     6.304707   -0.003066   -0.000069
    -1.735337    9.464308    0.000221
     0.000277   -0.001602    4.212450
   V    Fe
  17   3
Direct configuration=     3
   0.55445006  0.50199293  0.86676814
   0.56340354  0.00277587  0.86727822
   0.95005926  0.60252222  0.86660612
   0.85543215  0.95241644  0.36735678
   0.25647786  0.05128857  0.36723204
   0.24818008  0.55104467  0.36660695
   0.45441408  0.85358121  0.36712257
   0.65987575  0.65383196  0.36679443
   0.15661691  0.40282345  0.86661433
   0.34721610  0.20167161  0.86706361
   0.36366438  0.70307703  0.86680129
   0.14740986  0.90205417  0.86717493
   0.65645972  0.15178731  0.36737391
   0.46277100  0.35374683  0.36688487
   0.76088737  0.30242157  0.86718045
   0.05442185  0.75311860  0.36681058
   0.05100625  0.25103229  0.36691511
   0.75747674  0.80178115  0.86698704
   0.95323975  0.10299513  0.86725862
   0.85557228  0.45244801  0.36679102
unknown system                          
           1
     6.312855   -0.011715   -0.000184
    -1.750548    9.493980    0.000644
     0.000202   -0.001432    4.196989
   V    Fe
  17   3
Direct configuration=     4
   0.55333127  0.50157426  0.86674754
   0.56381674  0.00283352  0.86729063
   0.95007050  0.60235175  0.86663645
   0.85541908  0.95242146  0.36730029
   0.25699683  0.05137381  0.36724154
   0.24715873  0.55071051  0.36662234
   0.45387614  0.85348950  0.36711300
   0.66045504  0.65403844  0.36677344
   0.15769615  0.40324029  0.86667851
   0.34727528  0.20151424  0.86707353
   0.36362782  0.70327218  0.86680490
   0.14700929  0.90200332  0.86716587
   0.65533215  0.15174782  0.36731395
   0.46379265  0.35407951  0.36689603
   0.76088107  0.30256041  0.86710749
   0.05555184  0.75314568  0.36684125
   0.05044121  0.25081492  0.36695015
   0.75692261  0.80193679  0.86700910
   0.95382878  0.10286387  0.86726030
   0.85555181  0.45243871  0.36679467
unknown system                          
           1
     6.323006   -0.022489   -0.000328
    -1.769497    9.530945    0.001170
     0.000109   -0.001221    4.177727
   V    Fe
  17   3
Direct configuration=     5
   0.55193813  0.50105304  0.86672178
   0.56433109  0.00290558  0.86730616
   0.95008416  0.60214006  0.86667440
   0.85540282  0.95242768  0.36722965
   0.25764287  0.05148026  0.36725343
   0.24588700  0.55029436  0.36664159
   0.45320650  0.85337499  0.36710104
   0.66117637  0.65429553  0.36674718
   0.15904007  0.40375920  0.86675876
   0.34734863  0.20131887  0.86708597
   0.36358269  0.70351451  0.86680939
   0.14651067  0.90193970  0.86715455
   0.65392881  0.15169751  0.36723894
   0.46506475  0.35449384  0.36690998
   0.76087349  0.30273284  0.86701625
   0.05695819  0.75318060  0.36687963
   0.04973759  0.25054431  0.36699398
   0.75623328  0.80212945  0.86703665
   0.95456159  0.10270153  0.86726244
   0.85552630  0.45242715  0.36679922
unknown system                          
           1
     6.333589   -0.034415   -0.000325
    -1.790410    9.538008    0.001486
     0.000114   -0.001082    4.170125
   V    Fe
  17   3
Direct configuration=     6
   0.55248064  0.50128926  0.86671214
   0.56412744  0.00284299  0.86727602
   0.94981982  0.60218978  0.86669899
   0.85540712  0.95242824  0.36721707
   0.25750406  0.05150006  0.36725447
   0.24599782  0.55026319  0.36666625
   0.45334219  0.85335267  0.36710045
   0.66125316  0.65437883  0.36674303
   0.15848390  0.40353411  0.86679453
   0.34784573  0.20127240  0.86709796
   0.36308015  0.70356766  0.86680293
   0.14671634  0.90201038  0.86715369
   0.65398554  0.15191648  0.36719857
   0.46496033  0.35454571  0.36690572
   0.76113801  0.30266503  0.86697811
   0.05690024  0.75294870  0.36689631
   0.04966808  0.25045615  0.36701160
   0.75619438  0.80199523  0.86704279
   0.95461599  0.10284159  0.86725029
   0.85551406  0.45241255  0.36682006
unknown system                          
           1
     6.348103   -0.050771   -0.000321
    -1.819092    9.547695    0.001919
     0.000120   -0.000892    4.159698
   V    Fe
  17   3
Direct configuration=     7
   0.55322471  0.50161394  0.86669887
   0.56384824  0.00275686  0.86723462
   0.94945797  0.60225748  0.86673277
   0.85541300  0.95242900  0.36719977
   0.25731402  0.05152696  0.36725591
   0.24614947  0.55022066  0.36670014
   0.45352796  0.85332232  0.36709965
   0.66135868  0.65449311  0.36673732
   0.15772115  0.40322469  0.86684370
   0.34852642  0.20120955  0.86711445
   0.36239206  0.70363966  0.86679406
   0.14699835  0.90210759  0.86715251
   0.65406417  0.15221669  0.36714308
   0.46481753  0.35461661  0.36689988
   0.76150002  0.30257255  0.86692572
   0.05681989  0.75263078  0.36691924
   0.04957250  0.25033520  0.36703581
   0.75614053  0.80181121  0.86705126
   0.95469109  0.10303365  0.86723357
   0.85549721  0.45239252  0.36684870
unknown system                          
           1
     6.348116   -0.055662   -0.000255
    -1.826430    9.550371    0.002067
     0.000164   -0.000817    4.150956
   V    Fe
  17   3
Direct configuration=     8
   0.55317517  0.50163004  0.86671770
   0.56389673  0.00279400  0.86720977
   0.94961993  0.60233558  0.86674982
   0.85541769  0.95242131  0.36719903
   0.25714568  0.05160715  0.36724637
   0.24620272  0.55011671  0.36671715
   0.45370531  0.85324550  0.36708484
   0.66078688  0.65438681  0.36674782
   0.15778266  0.40321580  0.86684507
   0.34872578  0.20130739  0.86710518
   0.36218608  0.70354553  0.86679985
   0.14694782  0.90206218  0.86715285
   0.65419297  0.15214563  0.36713243
   0.46476045  0.35473268  0.36689457
   0.76132500  0.30248998  0.86693702
   0.05668769  0.75269713  0.36692072
   0.05014867  0.25044961  0.36703451
   0.75644825  0.80198474  0.86704618
   0.95438521  0.10285218  0.86722090
   0.85549433  0.45239106  0.36685921
unknown system                          
           1
     6.348113   -0.054819   -0.000266
    -1.825166    9.549910    0.002042
     0.000156   -0.000830    4.152462
   V    Fe
  17   3
Direct configuration=     9
   0.55318370  0.50162727  0.86671445
   0.56388837  0.00278760  0.86721406
   0.94959201  0.60232211  0.86674687
   0.85541688  0.95242264  0.36719916
   0.25717466  0.05159335  0.36724802
   0.24619357  0.55013460  0.36671421
   0.45367477  0.85325871  0.36708739
   0.66088541  0.65440517  0.36674601
   0.15777207  0.40321733  0.86684484
   0.34869141  0.20129053  0.86710678
   0.36222158  0.70356176  0.86679885
   0.14695654  0.90207000  0.86715279
   0.65417079  0.15215785  0.36713427
   0.46477026  0.35471270  0.36689549
   0.76135517  0.30250421  0.86693507
   0.05671045  0.75268572  0.36692046
   0.05004939  0.25042985  0.36703473
   0.75639520  0.80195483  0.86704706
   0.95443794  0.10288346  0.86722309
   0.85549483  0.45239131  0.36685740
unknown system                          
           1
     6.352650   -0.058289   -0.000214
    -1.831602    9.560088    0.002138
     0.000192   -0.000782    4.149332
   V    Fe
  17   3
Direct configuration=    10
   0.55307491  0.50160524  0.86673669
   0.56394643  0.00282155  0.86719538
   0.94974793  0.60237503  0.86675967
   0.85542171  0.95241610  0.36719729
   0.25707700  0.05164469  0.36723571
   0.24615963  0.55006580  0.36672790
   0.45378102  0.85321123  0.36707227
   0.66038985  0.65428814  0.36675934
   0.15789310  0.40324348  0.86684069
   0.34876342  0.20136700  0.86709408
   0.36214502  0.70348806  0.86680619
   0.14689825  0.90202801  0.86715070
   0.65428318  0.15205669  0.36713180
   0.46479938  0.35478873  0.36689233
   0.76118781  0.30245002  0.86695274
   0.05659617  0.75278505  0.36691920
   0.05054453  0.25055487  0.36702936
   0.75664314  0.80213141  0.86704134
   0.95418809  0.10269749  0.86721238
   0.85549443  0.45239241  0.36686595
unknown system                          
           1
     6.352283   -0.058008   -0.000218
    -1.831082    9.559266    0.002130
     0.000189   -0.000786    4.149584
   V    Fe
  17   3
Direct configuration=    11
   0.55308369  0.50160702  0.86673490
   0.56394174  0.00281881  0.86719689
   0.94973534  0.60237076  0.86675864
   0.85542132  0.95241663  0.36719744
   0.25708488  0.05164055  0.36723671
   0.24616238  0.55007135  0.36672679
   0.45377245  0.85321506  0.36707349
   0.66042986  0.65429759  0.36675826
   0.15788332  0.40324137  0.86684102
   0.34875760  0.20136083  0.86709511
   0.36215121  0.70349401  0.86680560
   0.14690296  0.90203140  0.86715087
   0.65427411  0.15206485  0.36713200
   0.46479702  0.35478259  0.36689259
   0.76120132  0.30245440  0.86695131
   0.05660539  0.75277704  0.36691930
   0.05050455  0.25054477  0.36702979
   0.75662311  0.80211715  0.86704180
   0.95420827  0.10271250  0.86721325
   0.85549446  0.45239232  0.36686526
unknown system                          
           1
     6.351995   -0.057788   -0.000221
    -1.830673    9.558619    0.002124
     0.000186   -0.000789    4.149783
   V    Fe
  17   3
Direct configuration=    12
   0.55309061  0.50160842  0.86673348
   0.56393805  0.00281665  0.86719808
   0.94972542  0.60236739  0.86675782
   0.85542102  0.95241705  0.36719756
   0.25709109  0.05163729  0.36723749
   0.24616454  0.55007572  0.36672592
   0.45376570  0.85321808  0.36707446
   0.66046137  0.65430504  0.36675742
   0.15787563  0.40323970  0.86684129
   0.34875302  0.20135596  0.86709592
   0.36215608  0.70349870  0.86680513
   0.14690667  0.90203407  0.86715100
   0.65426697  0.15207128  0.36713216
   0.46479517  0.35477776  0.36689279
   0.76121196  0.30245785  0.86695018
   0.05661265  0.75277073  0.36691938
   0.05047307  0.25053681  0.36703013
   0.75660734  0.80210593  0.86704216
   0.95422416  0.10272433  0.86721393
   0.85549448  0.45239225  0.36686471
unknown system                          
           1
     6.352229   -0.058407   -0.000228
    -1.831666    9.559220    0.002122
     0.000182   -0.000791    4.150098
   V    Fe
  17   3
Direct configuration=    13
   0.55308422  0.50159808  0.86674028
   0.56392061  0.00280242  0.86719729
   0.94971266  0.60237422  0.86675881
   0.85542290  0.95241726  0.36719334
   0.25714515  0.05160885  0.36723130
   0.24611155  0.55012259  0.36672828
   0.45371162  0.85324656  0.36707157
   0.66048154  0.65430542  0.36676313
   0.15788245  0.40324979  0.86683964
   0.34869379  0.20133376  0.86709126
   0.36221575  0.70352049  0.86680748
   0.14692705  0.90204808  0.86714648
   0.65427664  0.15204882  0.36713575
   0.46484755  0.35473057  0.36689493
   0.76122536  0.30245294  0.86695486
   0.05660360  0.75279406  0.36691832
   0.05044746  0.25053658  0.36702658
   0.75655288  0.80210144  0.86704154
   0.95427722  0.10272574  0.86721260
   0.85549497  0.45239334  0.36686756
unknown system                          
           1
     6.352915   -0.060217   -0.000249
    -1.834571    9.560978    0.002115
     0.000168   -0.000796    4.151017
   V    Fe
  17   3
Direct configuration=    14
   0.55306555  0.50156787  0.86676015
   0.56386963  0.00276080  0.86719501
   0.94967533  0.60239416  0.86676168
   0.85542840  0.95241787  0.36718099
   0.25730318  0.05152571  0.36721320
   0.24595668  0.55025961  0.36673518
   0.45355354  0.85332981  0.36706315
   0.66054051  0.65430654  0.36677984
   0.15790242  0.40327928  0.86683481
   0.34852061  0.20126885  0.86707764
   0.36239022  0.70358420  0.86681437
   0.14698666  0.90208906  0.86713329
   0.65430491  0.15198315  0.36714624
   0.46500067  0.35459263  0.36690119
   0.76126453  0.30243861  0.86696853
   0.05657713  0.75286227  0.36691522
   0.05037260  0.25053589  0.36701618
   0.75639367  0.80208830  0.86703973
   0.95443236  0.10272987  0.86720871
   0.85549639  0.45239654  0.36687589
unknown system                          
           1
     6.352526   -0.059188   -0.000237
    -1.832921    9.559979    0.002119
     0.000176   -0.000793    4.150495
   V    Fe
  17   3
Direct configuration=    15
   0.55307616  0.50158503  0.86674886
   0.56389860  0.00278445  0.86719631
   0.94969653  0.60238283  0.86676005
   0.85542528  0.95241752  0.36718800
   0.25721342  0.05157292  0.36722348
   0.24604464  0.55018179  0.36673126
   0.45364334  0.85328253  0.36706794
   0.66050701  0.65430590  0.36677035
   0.15789107  0.40326252  0.86683755
   0.34861901  0.20130575  0.86708537
   0.36229108  0.70354799  0.86681046
   0.14695279  0.90206577  0.86714078
   0.65428887  0.15202045  0.36714028
   0.46491371  0.35467097  0.36689764
   0.76124228  0.30244675  0.86696077
   0.05659215  0.75282352  0.36691698
   0.05041513  0.25053629  0.36702209
   0.75648413  0.80209578  0.86704076
   0.95434422  0.10272751  0.86721092
   0.85549558  0.45239472  0.36687116
