  20  20   0   0
  0.1295360E+02  0.6367622E-09  0.9829926E-09  0.4213914E-09  0.5000000E-15
  1.000000000000000E-004
  CAR 
 unknown system                          
      9.00806954     -1.42739627  301      6.55524254      1.00000000
     -1.427  0.0000E+00  0.0000E+00
     -1.393  0.0000E+00  0.0000E+00
     -1.358  0.0000E+00  0.0000E+00
     -1.323  0.0000E+00  0.0000E+00
     -1.288  0.0000E+00  0.0000E+00
     -1.253  0.0000E+00  0.0000E+00
     -1.219  0.0000E+00  0.0000E+00
     -1.184  0.0000E+00  0.0000E+00
     -1.149  0.0000E+00  0.0000E+00
     -1.114  0.0000E+00  0.0000E+00
     -1.080  0.0000E+00  0.0000E+00
     -1.045  0.0000E+00  0.0000E+00
     -1.010  0.1064E-17  0.3701E-19
     -0.975  0.4415E-16  0.1573E-17
     -0.940  0.1878E-14  0.6691E-16
     -0.906  0.6277E-13  0.2250E-14
     -0.871  0.1652E-11  0.5971E-13
     -0.836  0.3423E-10  0.1250E-11
     -0.801  0.5587E-09  0.2068E-10
     -0.766  0.7184E-08  0.2706E-09
     -0.732  0.7278E-07  0.2802E-08
     -0.697  0.5811E-06  0.2302E-07
     -0.662  0.3657E-05  0.1502E-06
     -0.627  0.1815E-04  0.7814E-06
     -0.593  0.7099E-04  0.3251E-05
     -0.558  0.2190E-03  0.1087E-04
     -0.523  0.5328E-03  0.2940E-04
     -0.488  0.1022E-02  0.6497E-04
     -0.453  0.1548E-02  0.1188E-03
     -0.419  0.1848E-02  0.1831E-03
     -0.384  0.1741E-02  0.2437E-03
     -0.349  0.1294E-02  0.2887E-03
     -0.314  0.7601E-03  0.3151E-03
     -0.279  0.3597E-03  0.3276E-03
     -0.245  0.1673E-03  0.3335E-03
     -0.210  0.1720E-03  0.3394E-03
     -0.175  0.3748E-03  0.3525E-03
     -0.140  0.7848E-03  0.3798E-03
     -0.106  0.1321E-02  0.4257E-03
     -0.071  0.1757E-02  0.4868E-03
     -0.036  0.1845E-02  0.5510E-03
     -0.001  0.1540E-02  0.6046E-03
      0.034  0.1058E-02  0.6414E-03
      0.068  0.7108E-03  0.6661E-03
      0.103  0.7017E-03  0.6905E-03
      0.138  0.1036E-02  0.7266E-03
      0.173  0.1519E-02  0.7794E-03
      0.207  0.1839E-02  0.8434E-03
      0.242  0.1770E-02  0.9050E-03
      0.277  0.1346E-02  0.9518E-03
      0.312  0.8084E-03  0.9799E-03
      0.347  0.3869E-03  0.9934E-03
      0.381  0.1655E-03  0.9991E-03
      0.416  0.1310E-03  0.1004E-02
      0.451  0.2885E-03  0.1014E-02
      0.486  0.7159E-03  0.1039E-02
      0.521  0.1530E-02  0.1092E-02
      0.555  0.2809E-02  0.1190E-02
      0.590  0.4507E-02  0.1346E-02
      0.625  0.6343E-02  0.1567E-02
      0.660  0.7719E-02  0.1835E-02
      0.694  0.7943E-02  0.2112E-02
      0.729  0.6778E-02  0.2348E-02
      0.764  0.4754E-02  0.2513E-02
      0.799  0.2823E-02  0.2611E-02
      0.834  0.1741E-02  0.2672E-02
      0.868  0.1801E-02  0.2734E-02
      0.903  0.2864E-02  0.2834E-02
      0.938  0.4372E-02  0.2986E-02
      0.973  0.5449E-02  0.3176E-02
      1.008  0.5407E-02  0.3364E-02
      1.042  0.4311E-02  0.3514E-02
      1.077  0.2973E-02  0.3617E-02
      1.112  0.2342E-02  0.3698E-02
      1.147  0.2935E-02  0.3801E-02
      1.181  0.4577E-02  0.3960E-02
      1.216  0.6416E-02  0.4183E-02
      1.251  0.7325E-02  0.4438E-02
      1.286  0.6695E-02  0.4671E-02
      1.321  0.4950E-02  0.4843E-02
      1.355  0.3208E-02  0.4954E-02
      1.390  0.2496E-02  0.5041E-02
      1.425  0.3271E-02  0.5155E-02
      1.460  0.5333E-02  0.5340E-02
      1.495  0.7908E-02  0.5616E-02
      1.529  0.9985E-02  0.5963E-02
      1.564  0.1088E-01  0.6341E-02
      1.599  0.1055E-01  0.6708E-02
      1.634  0.9298E-02  0.7032E-02
      1.668  0.7493E-02  0.7292E-02
      1.703  0.5549E-02  0.7486E-02
      1.738  0.4035E-02  0.7626E-02
      1.773  0.3495E-02  0.7747E-02
      1.808  0.4125E-02  0.7891E-02
      1.842  0.5651E-02  0.8087E-02
      1.877  0.7495E-02  0.8348E-02
      1.912  0.9078E-02  0.8664E-02
      1.947  0.1003E-01  0.9013E-02
      1.982  0.1017E-01  0.9367E-02
      2.016  0.9380E-02  0.9693E-02
      2.051  0.7660E-02  0.9960E-02
      2.086  0.5403E-02  0.1015E-01
      2.121  0.3336E-02  0.1026E-01
      2.155  0.2136E-02  0.1034E-01
      2.190  0.2114E-02  0.1041E-01
      2.225  0.3153E-02  0.1052E-01
      2.260  0.4808E-02  0.1069E-01
      2.295  0.6479E-02  0.1091E-01
      2.329  0.7672E-02  0.1118E-01
      2.364  0.8185E-02  0.1147E-01
      2.399  0.8110E-02  0.1175E-01
      2.434  0.7777E-02  0.1202E-01
      2.469  0.7717E-02  0.1229E-01
      2.503  0.8405E-02  0.1258E-01
      2.538  0.9798E-02  0.1292E-01
      2.573  0.1118E-01  0.1331E-01
      2.608  0.1169E-01  0.1372E-01
      2.642  0.1099E-01  0.1410E-01
      2.677  0.9463E-02  0.1443E-01
      2.712  0.7904E-02  0.1470E-01
      2.747  0.7028E-02  0.1495E-01
      2.782  0.7283E-02  0.1520E-01
      2.816  0.8947E-02  0.1551E-01
      2.851  0.1218E-01  0.1593E-01
      2.886  0.1677E-01  0.1652E-01
      2.921  0.2192E-01  0.1728E-01
      2.955  0.2654E-01  0.1820E-01
      2.990  0.2994E-01  0.1924E-01
      3.025  0.3222E-01  0.2037E-01
      3.060  0.3372E-01  0.2154E-01
      3.095  0.3448E-01  0.2274E-01
      3.129  0.3430E-01  0.2393E-01
      3.164  0.3329E-01  0.2509E-01
      3.199  0.3197E-01  0.2620E-01
      3.234  0.3095E-01  0.2728E-01
      3.269  0.3063E-01  0.2834E-01
      3.303  0.3104E-01  0.2942E-01
      3.338  0.3199E-01  0.3054E-01
      3.373  0.3340E-01  0.3170E-01
      3.408  0.3543E-01  0.3293E-01
      3.442  0.3827E-01  0.3426E-01
      3.477  0.4178E-01  0.3571E-01
      3.512  0.4542E-01  0.3729E-01
      3.547  0.4853E-01  0.3898E-01
      3.582  0.5077E-01  0.4075E-01
      3.616  0.5226E-01  0.4257E-01
      3.651  0.5353E-01  0.4443E-01
      3.686  0.5527E-01  0.4635E-01
      3.721  0.5775E-01  0.4836E-01
      3.756  0.6062E-01  0.5047E-01
      3.790  0.6337E-01  0.5267E-01
      3.825  0.6573E-01  0.5496E-01
      3.860  0.6758E-01  0.5731E-01
      3.895  0.6872E-01  0.5970E-01
      3.929  0.6865E-01  0.6209E-01
      3.964  0.6695E-01  0.6442E-01
      3.999  0.6393E-01  0.6664E-01
      4.034  0.6074E-01  0.6875E-01
      4.069  0.5843E-01  0.7079E-01
      4.103  0.5677E-01  0.7276E-01
      4.138  0.5439E-01  0.7465E-01
      4.173  0.5032E-01  0.7640E-01
      4.208  0.4507E-01  0.7797E-01
      4.243  0.4005E-01  0.7936E-01
      4.277  0.3629E-01  0.8063E-01
      4.312  0.3397E-01  0.8181E-01
      4.347  0.3278E-01  0.8295E-01
      4.382  0.3210E-01  0.8406E-01
      4.416  0.3110E-01  0.8515E-01
      4.451  0.2923E-01  0.8616E-01
      4.486  0.2708E-01  0.8710E-01
      4.521  0.2647E-01  0.8802E-01
      4.556  0.2926E-01  0.8904E-01
      4.590  0.3587E-01  0.9029E-01
      4.625  0.4488E-01  0.9185E-01
      4.660  0.5408E-01  0.9373E-01
      4.695  0.6183E-01  0.9588E-01
      4.730  0.6761E-01  0.9824E-01
      4.764  0.7190E-01  0.1007E+00
      4.799  0.7542E-01  0.1034E+00
      4.834  0.7816E-01  0.1061E+00
      4.869  0.7907E-01  0.1088E+00
      4.903  0.7704E-01  0.1115E+00
      4.938  0.7229E-01  0.1140E+00
      4.973  0.6650E-01  0.1163E+00
      5.008  0.6149E-01  0.1185E+00
      5.043  0.5795E-01  0.1205E+00
      5.077  0.5573E-01  0.1224E+00
      5.112  0.5494E-01  0.1243E+00
      5.147  0.5622E-01  0.1263E+00
      5.182  0.5996E-01  0.1284E+00
      5.217  0.6538E-01  0.1307E+00
      5.251  0.7083E-01  0.1331E+00
      5.286  0.7500E-01  0.1357E+00
      5.321  0.7756E-01  0.1384E+00
      5.356  0.7859E-01  0.1412E+00
      5.390  0.7799E-01  0.1439E+00
      5.425  0.7588E-01  0.1465E+00
      5.460  0.7324E-01  0.1491E+00
      5.495  0.7131E-01  0.1515E+00
      5.530  0.7043E-01  0.1540E+00
      5.564  0.6942E-01  0.1564E+00
      5.599  0.6671E-01  0.1587E+00
      5.634  0.6200E-01  0.1609E+00
      5.669  0.5706E-01  0.1629E+00
      5.704  0.5452E-01  0.1648E+00
      5.738  0.5575E-01  0.1667E+00
      5.773  0.5967E-01  0.1688E+00
      5.808  0.6355E-01  0.1710E+00
      5.843  0.6539E-01  0.1733E+00
      5.877  0.6552E-01  0.1755E+00
      5.912  0.6590E-01  0.1778E+00
      5.947  0.6804E-01  0.1802E+00
      5.982  0.7160E-01  0.1827E+00
      6.017  0.7491E-01  0.1853E+00
      6.051  0.7656E-01  0.1880E+00
      6.086  0.7650E-01  0.1906E+00
      6.121  0.7564E-01  0.1933E+00
      6.156  0.7452E-01  0.1958E+00
      6.190  0.7262E-01  0.1984E+00
      6.225  0.6909E-01  0.2008E+00
      6.260  0.6408E-01  0.2030E+00
      6.295  0.5904E-01  0.2051E+00
      6.330  0.5555E-01  0.2070E+00
      6.364  0.5381E-01  0.2089E+00
      6.399  0.5263E-01  0.2107E+00
      6.434  0.5095E-01  0.2125E+00
      6.469  0.4873E-01  0.2142E+00
      6.504  0.4633E-01  0.2158E+00
      6.538  0.4377E-01  0.2173E+00
      6.573  0.4092E-01  0.2187E+00
      6.608  0.3804E-01  0.2200E+00
      6.643  0.3579E-01  0.2213E+00
      6.677  0.3435E-01  0.2225E+00
      6.712  0.3266E-01  0.2236E+00
      6.747  0.2914E-01  0.2246E+00
      6.782  0.2356E-01  0.2255E+00
      6.817  0.1775E-01  0.2261E+00
      6.851  0.1425E-01  0.2266E+00
      6.886  0.1445E-01  0.2271E+00
      6.921  0.1791E-01  0.2277E+00
      6.956  0.2288E-01  0.2285E+00
      6.991  0.2739E-01  0.2294E+00
      7.025  0.3042E-01  0.2305E+00
      7.060  0.3244E-01  0.2316E+00
      7.095  0.3486E-01  0.2328E+00
      7.130  0.3866E-01  0.2342E+00
      7.164  0.4355E-01  0.2357E+00
      7.199  0.4838E-01  0.2374E+00
      7.234  0.5204E-01  0.2392E+00
      7.269  0.5418E-01  0.2411E+00
      7.304  0.5503E-01  0.2430E+00
      7.338  0.5483E-01  0.2449E+00
      7.373  0.5387E-01  0.2468E+00
      7.408  0.5324E-01  0.2486E+00
      7.443  0.5466E-01  0.2505E+00
      7.478  0.5877E-01  0.2526E+00
      7.512  0.6375E-01  0.2548E+00
      7.547  0.6644E-01  0.2571E+00
      7.582  0.6537E-01  0.2594E+00
      7.617  0.6186E-01  0.2615E+00
      7.651  0.5794E-01  0.2635E+00
      7.686  0.5384E-01  0.2654E+00
      7.721  0.4831E-01  0.2671E+00
      7.756  0.4057E-01  0.2685E+00
      7.791  0.3132E-01  0.2696E+00
      7.825  0.2212E-01  0.2704E+00
      7.860  0.1448E-01  0.2709E+00
      7.895  0.9246E-02  0.2712E+00
      7.930  0.6324E-02  0.2714E+00
      7.965  0.4940E-02  0.2716E+00
      7.999  0.4146E-02  0.2717E+00
      8.034  0.3311E-02  0.2718E+00
      8.069  0.2311E-02  0.2719E+00
      8.104  0.1350E-02  0.2720E+00
      8.138  0.6462E-03  0.2720E+00
      8.173  0.2502E-03  0.2720E+00
      8.208  0.7782E-04  0.2720E+00
      8.243  0.1933E-04  0.2720E+00
      8.278  0.3818E-05  0.2720E+00
      8.312  0.5984E-06  0.2720E+00
      8.347  0.7425E-07  0.2720E+00
      8.382  0.7282E-08  0.2720E+00
      8.417  0.5639E-09  0.2720E+00
      8.452  0.3444E-10  0.2720E+00
      8.486  0.1659E-11  0.2720E+00
      8.521  0.6295E-13  0.2720E+00
      8.556  0.1883E-14  0.2720E+00
      8.591  0.4362E-16  0.2720E+00
      8.625  0.1064E-17  0.2720E+00
      8.660  0.0000E+00  0.2720E+00
      8.695  0.0000E+00  0.2720E+00
      8.730  0.0000E+00  0.2720E+00
      8.765  0.0000E+00  0.2720E+00
      8.799  0.0000E+00  0.2720E+00
      8.834  0.0000E+00  0.2720E+00
      8.869  0.0000E+00  0.2720E+00
      8.904  0.0000E+00  0.2720E+00
      8.938  0.0000E+00  0.2720E+00
      8.973  0.0000E+00  0.2720E+00
      9.008  0.0000E+00  0.2720E+00
