   20   20  500    1
  0.1295360E+02  0.6367622E-09  0.9829926E-09  0.4213914E-09  0.5000000E-15
  1.000000000000000E-004
  CAR 
 unknown system                          
    109      8     68
 
  0.0000000E+00  0.0000000E+00  0.0000000E+00  0.8333333E-01
    1       -0.427396   1.000000
    2        1.240581   1.000000
    3        1.532350   1.000000
    4        2.783650   1.000000
    5        2.949442   1.000000
    6        3.039087   1.000000
    7        3.141195   1.000000
    8        3.242224   1.000000
    9        3.542059   1.000000
   10        3.567496   1.000000
   11        3.668355   1.000000
   12        3.707288   1.000000
   13        3.897614   1.000000
   14        3.936452   1.000000
   15        4.009891   1.000000
   16        4.046276   1.000000
   17        4.077371   1.000000
   18        4.202509   1.000000
   19        4.246896   1.000000
   20        4.287534   1.000000
   21        4.312381   1.000000
   22        4.327561   1.000000
   23        4.467393   1.000000
   24        4.570787   1.000000
   25        4.634851   1.000000
   26        4.681093   1.000000
   27        4.737732   1.000000
   28        4.812729   1.000000
   29        4.819982   1.000000
   30        4.825922   1.000000
   31        4.904110   1.000000
   32        4.929774   1.000000
   33        4.963335   1.000000
   34        5.028021   1.000000
   35        5.224421   1.000000
   36        5.226572   1.000000
   37        5.256844   1.000000
   38        5.266575   1.000000
   39        5.302049   1.000000
   40        5.460488   1.000000
   41        5.473873   1.000000
   42        5.527344   1.000000
   43        5.679319   1.000000
   44        5.780213   1.000000
   45        5.950377   1.000000
   46        5.987594   1.000000
   47        6.155821   1.000000
   48        6.181663   1.000000
   49        6.230118   0.999998
   50        6.279321   0.999952
   51        6.369613   0.995670
   52        6.531495   0.631505
   53        6.562723   0.457874
   54        6.606895   0.232550
   55        6.695224   0.023872
   56        6.708215   0.015257
   57        6.945666   0.000000
   58        6.964493   0.000000
   59        6.995857   0.000000
   60        7.079837   0.000000
   61        7.267619   0.000000
   62        7.294564   0.000000
   63        7.432988   0.000000
   64        7.566601   0.000000
   65        7.594812   0.000000
   66        7.685433   0.000000
   67        7.708406   0.000000
   68        7.781972   0.000000
 
  0.5000000E+00 -0.1318417E-16 -0.4963340E-20  0.8333333E-01
    1        0.576618   1.000000
    2        0.704461   1.000000
    3        1.825375   1.000000
    4        1.916535   1.000000
    5        2.571829   1.000000
    6        2.625323   1.000000
    7        2.941661   1.000000
    8        3.053366   1.000000
    9        3.081301   1.000000
   10        3.579910   1.000000
   11        3.696708   1.000000
   12        3.776206   1.000000
   13        3.884388   1.000000
   14        3.889418   1.000000
   15        4.013521   1.000000
   16        4.090622   1.000000
   17        4.118625   1.000000
   18        4.235923   1.000000
   19        4.271333   1.000000
   20        4.334862   1.000000
   21        4.425766   1.000000
   22        4.430254   1.000000
   23        4.452806   1.000000
   24        4.491935   1.000000
   25        4.641176   1.000000
   26        4.724559   1.000000
   27        4.829672   1.000000
   28        4.875649   1.000000
   29        4.944923   1.000000
   30        5.063785   1.000000
   31        5.112310   1.000000
   32        5.157946   1.000000
   33        5.181933   1.000000
   34        5.254744   1.000000
   35        5.260536   1.000000
   36        5.295556   1.000000
   37        5.324740   1.000000
   38        5.424459   1.000000
   39        5.495651   1.000000
   40        5.571063   1.000000
   41        5.709905   1.000000
   42        5.773320   1.000000
   43        5.794161   1.000000
   44        5.815739   1.000000
   45        5.815899   1.000000
   46        5.872904   1.000000
   47        5.959876   1.000000
   48        5.968234   1.000000
   49        5.987977   1.000000
   50        6.028255   1.000000
   51        6.037479   1.000000
   52        6.190943   1.000000
   53        6.193049   1.000000
   54        6.264343   0.999981
   55        6.350302   0.998124
   56        6.492348   0.813122
   57        7.196970   0.000000
   58        7.230018   0.000000
   59        7.238674   0.000000
   60        7.335748   0.000000
   61        7.372375   0.000000
   62        7.488894   0.000000
   63        7.508675   0.000000
   64        7.548835   0.000000
   65        7.653795   0.000000
   66        7.863324   0.000000
   67        7.951296   0.000000
   68        8.008070   0.000000
 
  0.0000000E+00  0.5000000E+00  0.8397289E-20  0.8333333E-01
    1       -0.063759   1.000000
    2        0.202139   1.000000
    3        2.558394   1.000000
    4        2.733358   1.000000
    5        2.980726   1.000000
    6        3.031751   1.000000
    7        3.211618   1.000000
    8        3.423687   1.000000
    9        3.557779   1.000000
   10        3.621493   1.000000
   11        3.622848   1.000000
   12        3.733119   1.000000
   13        3.782836   1.000000
   14        3.846473   1.000000
   15        3.910856   1.000000
   16        3.941477   1.000000
   17        3.946158   1.000000
   18        4.046321   1.000000
   19        4.105431   1.000000
   20        4.150091   1.000000
   21        4.392056   1.000000
   22        4.469352   1.000000
   23        4.484849   1.000000
   24        4.582337   1.000000
   25        4.625592   1.000000
   26        4.638365   1.000000
   27        4.721449   1.000000
   28        4.750675   1.000000
   29        4.834958   1.000000
   30        4.885776   1.000000
   31        4.895217   1.000000
   32        5.036366   1.000000
   33        5.073215   1.000000
   34        5.104404   1.000000
   35        5.150351   1.000000
   36        5.211800   1.000000
   37        5.268490   1.000000
   38        5.344738   1.000000
   39        5.388133   1.000000
   40        5.484082   1.000000
   41        5.519362   1.000000
   42        5.539845   1.000000
   43        5.599034   1.000000
   44        5.641950   1.000000
   45        5.687020   1.000000
   46        5.850403   1.000000
   47        5.871080   1.000000
   48        6.197330   1.000000
   49        6.307875   0.999766
   50        6.327589   0.999358
   51        6.408451   0.981050
   52        6.599810   0.264257
   53        6.621906   0.172901
   54        6.726558   0.007701
   55        6.861259   0.000008
   56        6.955435   0.000000
   57        6.983797   0.000000
   58        7.104704   0.000000
   59        7.122675   0.000000
   60        7.165487   0.000000
   61        7.226782   0.000000
   62        7.255872   0.000000
   63        7.325972   0.000000
   64        7.353164   0.000000
   65        7.530536   0.000000
   66        7.542576   0.000000
   67        7.672166   0.000000
   68        7.748648   0.000000
 
  0.5000000E+00  0.5000000E+00  0.2850980E-19  0.8333333E-01
    1        0.676359   1.000000
    2        0.977662   1.000000
    3        1.214144   1.000000
    4        1.500211   1.000000
    5        3.153842   1.000000
    6        3.195442   1.000000
    7        3.231349   1.000000
    8        3.240846   1.000000
    9        3.310162   1.000000
   10        3.378964   1.000000
   11        3.442947   1.000000
   12        3.464313   1.000000
   13        3.605132   1.000000
   14        3.716751   1.000000
   15        3.731372   1.000000
   16        3.807701   1.000000
   17        4.016574   1.000000
   18        4.259391   1.000000
   19        4.421106   1.000000
   20        4.429747   1.000000
   21        4.611481   1.000000
   22        4.620450   1.000000
   23        4.646364   1.000000
   24        4.713337   1.000000
   25        4.791283   1.000000
   26        4.838291   1.000000
   27        4.849476   1.000000
   28        4.891345   1.000000
   29        4.903898   1.000000
   30        4.972130   1.000000
   31        4.991957   1.000000
   32        5.044478   1.000000
   33        5.121335   1.000000
   34        5.221621   1.000000
   35        5.259082   1.000000
   36        5.282233   1.000000
   37        5.362856   1.000000
   38        5.369158   1.000000
   39        5.461480   1.000000
   40        5.526281   1.000000
   41        5.539869   1.000000
   42        5.570006   1.000000
   43        5.616507   1.000000
   44        5.712838   1.000000
   45        5.777424   1.000000
   46        5.785222   1.000000
   47        5.918036   1.000000
   48        6.048328   1.000000
   49        6.078340   1.000000
   50        6.092566   1.000000
   51        6.180166   1.000000
   52        6.246699   0.999994
   53        6.281659   0.999945
   54        6.531789   0.629935
   55        6.570792   0.412974
   56        6.983439   0.000000
   57        7.078189   0.000000
   58        7.227877   0.000000
   59        7.313672   0.000000
   60        7.332760   0.000000
   61        7.336689   0.000000
   62        7.392964   0.000000
   63        7.456892   0.000000
   64        7.461777   0.000000
   65        7.551354   0.000000
   66        7.639826   0.000000
   67        7.646597   0.000000
   68        7.734266   0.000000
 
  0.0000000E+00  0.0000000E+00  0.3333333E+00  0.1666667E+00
    1        0.663583   1.000000
    2        2.027032   1.000000
    3        2.347942   1.000000
    4        2.640193   1.000000
    5        3.085979   1.000000
    6        3.096261   1.000000
    7        3.361704   1.000000
    8        3.479973   1.000000
    9        3.562450   1.000000
   10        3.623980   1.000000
   11        3.709850   1.000000
   12        3.727938   1.000000
   13        3.821814   1.000000
   14        3.854379   1.000000
   15        3.893774   1.000000
   16        3.957070   1.000000
   17        3.977694   1.000000
   18        4.009424   1.000000
   19        4.090800   1.000000
   20        4.136072   1.000000
   21        4.177905   1.000000
   22        4.245140   1.000000
   23        4.680606   1.000000
   24        4.701695   1.000000
   25        4.745163   1.000000
   26        4.771040   1.000000
   27        4.837311   1.000000
   28        4.919233   1.000000
   29        4.924773   1.000000
   30        4.999486   1.000000
   31        5.045194   1.000000
   32        5.162198   1.000000
   33        5.209335   1.000000
   34        5.237657   1.000000
   35        5.309297   1.000000
   36        5.337730   1.000000
   37        5.408488   1.000000
   38        5.435221   1.000000
   39        5.479935   1.000000
   40        5.566390   1.000000
   41        5.594262   1.000000
   42        5.669048   1.000000
   43        5.757861   1.000000
   44        5.809866   1.000000
   45        5.834414   1.000000
   46        5.975595   1.000000
   47        6.051247   1.000000
   48        6.115743   1.000000
   49        6.126982   1.000000
   50        6.191171   1.000000
   51        6.274105   0.999965
   52        6.372680   0.995086
   53        6.383036   0.992562
   54        6.487981   0.829255
   55        6.583565   0.344378
   56        6.683096   0.035294
   57        7.016823   0.000000
   58        7.082058   0.000000
   59        7.180150   0.000000
   60        7.228579   0.000000
   61        7.278643   0.000000
   62        7.391834   0.000000
   63        7.473379   0.000000
   64        7.522034   0.000000
   65        7.554049   0.000000
   66        7.637378   0.000000
   67        7.671528   0.000000
   68        7.741561   0.000000
 
  0.5000000E+00 -0.1318417E-16  0.3333333E+00  0.1666667E+00
    1        1.505979   1.000000
    2        1.652821   1.000000
    3        2.422938   1.000000
    4        2.546492   1.000000
    5        2.902072   1.000000
    6        2.939701   1.000000
    7        3.084348   1.000000
    8        3.174996   1.000000
    9        3.353986   1.000000
   10        3.461934   1.000000
   11        3.570436   1.000000
   12        3.607429   1.000000
   13        3.724211   1.000000
   14        3.765334   1.000000
   15        3.817620   1.000000
   16        3.890617   1.000000
   17        3.902194   1.000000
   18        4.134920   1.000000
   19        4.198455   1.000000
   20        4.353052   1.000000
   21        4.368813   1.000000
   22        4.572664   1.000000
   23        4.595451   1.000000
   24        4.691686   1.000000
   25        4.760045   1.000000
   26        4.817686   1.000000
   27        4.864004   1.000000
   28        4.901652   1.000000
   29        4.969015   1.000000
   30        5.051629   1.000000
   31        5.110156   1.000000
   32        5.121972   1.000000
   33        5.282696   1.000000
   34        5.335782   1.000000
   35        5.376283   1.000000
   36        5.412154   1.000000
   37        5.529700   1.000000
   38        5.575254   1.000000
   39        5.621879   1.000000
   40        5.705113   1.000000
   41        5.750714   1.000000
   42        5.826989   1.000000
   43        5.887275   1.000000
   44        5.940481   1.000000
   45        5.987151   1.000000
   46        6.015355   1.000000
   47        6.051564   1.000000
   48        6.123528   1.000000
   49        6.135527   1.000000
   50        6.158741   1.000000
   51        6.205804   1.000000
   52        6.232821   0.999997
   53        6.320641   0.999546
   54        6.360803   0.997018
   55        6.400808   0.985520
   56        6.458626   0.914087
   57        6.475315   0.870836
   58        7.026035   0.000000
   59        7.139744   0.000000
   60        7.209739   0.000000
   61        7.321974   0.000000
   62        7.371670   0.000000
   63        7.444414   0.000000
   64        7.528220   0.000000
   65        7.556939   0.000000
   66        7.686848   0.000000
   67        7.718044   0.000000
   68        7.772400   0.000000
 
  0.0000000E+00  0.5000000E+00  0.3333333E+00  0.1666667E+00
    1        0.967980   1.000000
    2        1.246172   1.000000
    3        2.860769   1.000000
    4        3.026565   1.000000
    5        3.126028   1.000000
    6        3.189816   1.000000
    7        3.280331   1.000000
    8        3.298911   1.000000
    9        3.411210   1.000000
   10        3.488289   1.000000
   11        3.512961   1.000000
   12        3.522200   1.000000
   13        3.756787   1.000000
   14        3.814283   1.000000
   15        3.920433   1.000000
   16        3.950299   1.000000
   17        3.960530   1.000000
   18        3.994032   1.000000
   19        4.144738   1.000000
   20        4.153679   1.000000
   21        4.276645   1.000000
   22        4.398727   1.000000
   23        4.623025   1.000000
   24        4.672382   1.000000
   25        4.715560   1.000000
   26        4.773687   1.000000
   27        4.850576   1.000000
   28        4.881922   1.000000
   29        4.890246   1.000000
   30        5.020350   1.000000
   31        5.048522   1.000000
   32        5.195326   1.000000
   33        5.219158   1.000000
   34        5.344924   1.000000
   35        5.378088   1.000000
   36        5.433278   1.000000
   37        5.487086   1.000000
   38        5.567235   1.000000
   39        5.611524   1.000000
   40        5.671182   1.000000
   41        5.767441   1.000000
   42        5.828790   1.000000
   43        5.904272   1.000000
   44        5.948300   1.000000
   45        6.002968   1.000000
   46        6.030357   1.000000
   47        6.033809   1.000000
   48        6.072958   1.000000
   49        6.107232   1.000000
   50        6.126279   1.000000
   51        6.187118   1.000000
   52        6.221683   0.999999
   53        6.266802   0.999977
   54        6.374004   0.994813
   55        6.484409   0.841763
   56        6.570085   0.416873
   57        6.691309   0.027160
   58        6.727990   0.007283
   59        7.197458   0.000000
   60        7.252777   0.000000
   61        7.309718   0.000000
   62        7.442398   0.000000
   63        7.510096   0.000000
   64        7.523866   0.000000
   65        7.552708   0.000000
   66        7.636034   0.000000
   67        7.685396   0.000000
   68        7.793666   0.000000
 
  0.5000000E+00  0.5000000E+00  0.3333333E+00  0.1666667E+00
    1        1.587994   1.000000
    2        1.893248   1.000000
    3        1.982841   1.000000
    4        2.274781   1.000000
    5        2.953027   1.000000
    6        2.985684   1.000000
    7        3.308021   1.000000
    8        3.396423   1.000000
    9        3.505442   1.000000
   10        3.609483   1.000000
   11        3.642557   1.000000
   12        3.670290   1.000000
   13        3.702094   1.000000
   14        3.796546   1.000000
   15        3.809831   1.000000
   16        3.833595   1.000000
   17        3.875754   1.000000
   18        3.956900   1.000000
   19        4.033645   1.000000
   20        4.072353   1.000000
   21        4.087531   1.000000
   22        4.115724   1.000000
   23        4.694221   1.000000
   24        4.765754   1.000000
   25        4.807181   1.000000
   26        4.846981   1.000000
   27        4.935888   1.000000
   28        4.996172   1.000000
   29        5.125289   1.000000
   30        5.212013   1.000000
   31        5.252191   1.000000
   32        5.300601   1.000000
   33        5.356879   1.000000
   34        5.371111   1.000000
   35        5.387039   1.000000
   36        5.428699   1.000000
   37        5.481137   1.000000
   38        5.537958   1.000000
   39        5.580506   1.000000
   40        5.620821   1.000000
   41        5.783670   1.000000
   42        5.788520   1.000000
   43        5.867183   1.000000
   44        5.883688   1.000000
   45        5.928245   1.000000
   46        5.976451   1.000000
   47        6.021875   1.000000
   48        6.076963   1.000000
   49        6.179517   1.000000
   50        6.250845   0.999992
   51        6.375418   0.994506
   52        6.403866   0.983854
   53        6.469350   0.887760
   54        6.514986   0.715426
   55        6.589429   0.314384
   56        6.688936   0.029332
   57        6.745804   0.003520
   58        6.759693   0.001918
   59        6.910375   0.000000
   60        6.985874   0.000000
   61        7.130879   0.000000
   62        7.165282   0.000000
   63        7.343603   0.000000
   64        7.377608   0.000000
   65        7.510165   0.000000
   66        7.527510   0.000000
   67        7.597915   0.000000
   68        7.665367   0.000000
