 vasp.5.4.4.18Apr17-6-g9f103f2a35 (build Jul 11 2019 11:52:51) complex          
  
 executed on             LinuxIFC date 2023.11.29  16:54:05
 running on    4 total cores
 distrk:  each k-point on    4 cores,    1 groups
 distr:  one band on NCORES_PER_BAND=   1 cores,    4 groups


--------------------------------------------------------------------------------------------------------


 INCAR:
 POTCAR:    PAW_PBE V 08Apr2002                   
 POTCAR:    PAW_PBE Fe 06Sep2000                  
 POTCAR:    PAW_PBE V 08Apr2002                   
   VRHFIN =V: p6 d4 s1                                                          
   LEXCH  = PE                                                                  
   EATOM  =   170.8679 eV,   12.5584 Ry                                         
                                                                                
   TITEL  = PAW_PBE V 08Apr2002                                                 
   LULTRA =        F    use ultrasoft PP ?                                      
   IUNSCR =        1    unscreen: 0-lin 1-nonlin 2-no                           
   RPACOR =    2.000    partial core radius                                     
   POMASS =   50.941; ZVAL   =    5.000    mass and valenz                      
   RCORE  =    2.700    outmost cutoff radius                                   
   RWIGS  =    2.500; RWIGS  =    1.323    wigner-seitz radius (au A)           
   ENMAX  =  192.543; ENMIN  =  144.408 eV                                      
   RCLOC  =    1.779    cutoff for local pot                                    
   LCOR   =        T    correct aug charges                                     
   LPAW   =        T    paw PP                                                  
   EAUG   =  358.662                                                            
   DEXC   =    0.000                                                            
   RMAX   =    2.768    core radius for proj-oper                               
   RAUG   =    1.300    factor for augmentation sphere                          
   RDEP   =    2.762    radius for radial grids                                 
   RDEPT  =    2.240    core radius for aug-charge                              
                                                                                
   Atomic configuration                                                         
    9 entries                                                                   
     n  l   j            E        occ.                                          
     1  0  0.50     -5360.7193   2.0000                                         
     2  0  0.50      -598.4546   2.0000                                         
     2  1  1.50      -499.0155   6.0000                                         
     3  0  0.50       -66.5711   2.0000                                         
     3  1  1.50       -40.5282   6.0000                                         
     3  2  2.50        -2.4291   4.0000                                         
     4  0  0.50        -3.8743   1.0000                                         
     4  1  0.50        -2.7212   0.0000                                         
     4  3  2.50        -1.3606   0.0000                                         
   Description                                                                  
     l       E           TYP  RCUT    TYP  RCUT                                 
     2     -2.4290901     23  2.700                                             
     2     -3.7896727     23  2.700                                             
     0     -3.8742752     23  2.700                                             
     0     27.2116520     23  2.700                                             
     1     -2.7211652     23  2.700                                             
     1     27.2116520     23  2.700                                             
  local pseudopotential read in
  partial core-charges read in
  partial kinetic energy density read in
  atomic valenz-charges read in
  non local Contribution for L=           2  read in
    real space projection operators read in
  non local Contribution for L=           2  read in
    real space projection operators read in
  non local Contribution for L=           0  read in
    real space projection operators read in
  non local Contribution for L=           0  read in
    real space projection operators read in
  non local Contribution for L=           1  read in
    real space projection operators read in
  non local Contribution for L=           1  read in
    real space projection operators read in
    PAW grid and wavefunctions read in
 
   number of l-projection  operators is LMAX  =           6
   number of lm-projection operators is LMMAX =          18
 
 POTCAR:    PAW_PBE Fe 06Sep2000                  
   VRHFIN =Fe:  d7 s1                                                           
   LEXCH  = PE                                                                  
   EATOM  =   594.3153 eV,   43.6809 Ry                                         
                                                                                
   TITEL  = PAW_PBE Fe 06Sep2000                                                
   LULTRA =        F    use ultrasoft PP ?                                      
   IUNSCR =        1    unscreen: 0-lin 1-nonlin 2-no                           
   RPACOR =    2.000    partial core radius                                     
   POMASS =   55.847; ZVAL   =    8.000    mass and valenz                      
   RCORE  =    2.300    outmost cutoff radius                                   
   RWIGS  =    2.460; RWIGS  =    1.302    wigner-seitz radius (au A)           
   ENMAX  =  267.882; ENMIN  =  200.911 eV                                      
   RCLOC  =    1.701    cutoff for local pot                                    
   LCOR   =        T    correct aug charges                                     
   LPAW   =        T    paw PP                                                  
   EAUG   =  511.368                                                            
   DEXC   =    0.000                                                            
   RMAX   =    2.356    core radius for proj-oper                               
   RAUG   =    1.300    factor for augmentation sphere                          
   RDEP   =    2.442    radius for radial grids                                 
   RDEPT  =    1.890    core radius for aug-charge                              
                                                                                
   Atomic configuration                                                         
    9 entries                                                                   
     n  l   j            E        occ.                                          
     1  0  0.50     -6993.8440   2.0000                                         
     2  0  0.50      -814.6047   2.0000                                         
     2  1  1.50      -693.3689   6.0000                                         
     3  0  0.50       -89.4732   2.0000                                         
     3  1  1.50       -55.6373   6.0000                                         
     3  2  2.50        -3.8151   7.0000                                         
     4  0  0.50        -4.2551   1.0000                                         
     4  1  1.50        -3.4015   0.0000                                         
     4  3  2.50        -1.3606   0.0000                                         
   Description                                                                  
     l       E           TYP  RCUT    TYP  RCUT                                 
     2     -3.8151135     23  2.300                                             
     2     -5.1756961     23  2.300                                             
     0     -4.2550963     23  2.300                                             
     0      7.2035603     23  2.300                                             
     1     -2.7211652     23  2.300                                             
     1     18.4316424     23  2.300                                             
  local pseudopotential read in
  partial core-charges read in
  partial kinetic energy density read in
  atomic valenz-charges read in
  non local Contribution for L=           2  read in
    real space projection operators read in
  non local Contribution for L=           2  read in
    real space projection operators read in
  non local Contribution for L=           0  read in
    real space projection operators read in
  non local Contribution for L=           0  read in
    real space projection operators read in
  non local Contribution for L=           1  read in
    real space projection operators read in
  non local Contribution for L=           1  read in
    real space projection operators read in
    PAW grid and wavefunctions read in
 
   number of l-projection  operators is LMAX  =           6
   number of lm-projection operators is LMMAX =          18
 

 ----------------------------------------------------------------------------- 
|                                                                             |
|  ADVICE TO THIS USER RUNNING 'VASP/VAMP'   (HEAR YOUR MASTER'S VOICE ...):  |
|                                                                             |
|      You have a (more or less) 'large supercell' and for larger cells       |
|      it might be more efficient to use real space projection opertators     |
|      So try LREAL= Auto  in the INCAR   file.                               |
|      Mind:          For very  accurate calculation you might also keep the  |
|      reciprocal projection scheme          (i.e. LREAL=.FALSE.)             |
|                                                                             |
 ----------------------------------------------------------------------------- 

  PAW_PBE V 08Apr2002                   :
 energy of atom  1       EATOM= -170.8679
 kinetic energy error for atom=    0.0066 (will be added to EATOM!!)
  PAW_PBE Fe 06Sep2000                  :
 energy of atom  2       EATOM= -594.3153
 kinetic energy error for atom=    0.0346 (will be added to EATOM!!)
 
 
 POSCAR: EA0     6.368  9.830  4.214 90.05 89.99 
  positions in direct lattice
  No initial velocities read in
 exchange correlation table for  LEXCH =        8
   RHO(1)=    0.500       N(1)  =     2000
   RHO(2)=  100.500       N(2)  =     4000
 


--------------------------------------------------------------------------------------------------------


 ion  position               nearest neighbor table
   1  0.568  0.474  0.124-  14 2.26   2 2.54   6 2.54   4 2.59   7 2.61   7 2.61  20 2.84  11 2.90
                            11 2.91   9 2.93   9 2.93   5 3.05  14 3.08  15 3.11
   2  0.965  0.575  0.125-  19 2.23  20 2.44   1 2.54   4 2.54  11 2.57  11 2.58  14 2.77  15 2.85
                             9 2.97   9 2.98   6 3.07  19 3.07  16 3.09
   3  0.950  0.068  0.125-  12 2.09  16 2.40   6 2.50   8 2.59   8 2.61   5 2.64  17 2.66  15 2.89
                            18 2.91  18 2.92  12 2.96  10 3.00  10 3.01   4 3.04
   4  0.163  0.373  0.123-   2 2.54   1 2.59   5 2.59   8 2.60   8 2.60   9 2.60   6 2.61   9 2.61
                             7 2.96   7 2.96  11 2.97  11 2.97   3 3.04  20 3.12
   5  0.365  0.167  0.124-  17 2.31   6 2.50  10 2.53  10 2.54   4 2.59   7 2.59   7 2.60   3 2.64
                            18 2.91  18 2.92  16 2.92   8 3.00   8 3.00   1 3.05
   6  0.756  0.267  0.123-   5 2.50   3 2.50  18 2.52  18 2.53   1 2.54   4 2.61  11 2.64  11 2.64
                            17 2.90   7 2.91   7 2.92   8 2.93   8 2.94   2 3.07
   7  0.464  0.320  0.623-  18 2.46  11 2.55   9 2.55   5 2.59   5 2.60   8 2.60   1 2.61   1 2.61
                             6 2.91   6 2.92  10 2.92   4 2.96   4 2.96
   8  0.055  0.221  0.624-  18 2.49  10 2.54  11 2.57   3 2.59   4 2.60   4 2.60   7 2.60   3 2.61
                            12 2.93   6 2.93   6 2.94   5 3.00   5 3.00   9 3.05
   9  0.272  0.525  0.625-  20 2.23  14 2.46   7 2.55   4 2.60   4 2.61  11 2.62  19 2.84   1 2.93
                             1 2.93   2 2.97   2 2.98   8 3.05  20 3.06  13 3.08
  10  0.267  0.026  0.626-  16 2.16  13 2.35  17 2.42   5 2.53  18 2.53   8 2.54   5 2.54  12 2.76
                             7 2.92  19 2.99   3 3.00   3 3.01  16 3.01
  11  0.861  0.428  0.624-   7 2.55   2 2.57   8 2.57   2 2.58   9 2.62   6 2.64   6 2.64  14 2.77
                             1 2.90   1 2.91   4 2.97   4 2.97  18 2.99  19 3.08
  12  0.838  0.936  0.502-   3 2.09  18 2.41  19 2.51  15 2.58  15 2.58  13 2.61  10 2.76   8 2.93
                            14 2.95  16 2.95  16 2.95  17 2.96  17 2.96   3 2.96
  13  0.428  0.836  0.502-  10 2.35  19 2.51  14 2.56  20 2.57  20 2.58  17 2.59  17 2.59  12 2.61
                            16 2.91  16 2.91  15 2.95  15 2.95  18 3.01   9 3.08
  14  0.641  0.640  0.501-   1 2.26   9 2.46  19 2.51  13 2.56  15 2.57  15 2.57  11 2.77   2 2.77
                            12 2.95  20 2.98  20 2.98   1 3.08
  15  0.730  0.788  0.002-  17 2.49  20 2.55  14 2.57  14 2.57  12 2.58  12 2.58  16 2.59   2 2.85
                             3 2.89  13 2.95  13 2.95  19 2.97  19 2.97   1 3.11
  16  0.138  0.886  0.002-  10 2.16   3 2.40  20 2.50  17 2.54  19 2.58  19 2.58  15 2.59  13 2.91
                            13 2.91   5 2.92  12 2.95  12 2.95  10 3.01   2 3.09
  17  0.536  0.986  0.002-  18 2.17   5 2.31  10 2.42  15 2.49  16 2.54  13 2.59  13 2.59   3 2.66
                             6 2.90  12 2.96  12 2.96  20 2.98  18 3.01
  18  0.663  0.127  0.625-  17 2.17  12 2.41   7 2.46   8 2.49   6 2.52  10 2.53   6 2.53   5 2.91
                             3 2.91   5 2.92   3 2.92  11 2.99  17 3.01  13 3.01
  19  0.035  0.737  0.502-   2 2.23  12 2.51  14 2.51  13 2.51  16 2.58  16 2.58   9 2.84  20 2.93
                            20 2.93  15 2.97  15 2.97  10 2.99   2 3.07  11 3.08
  20  0.332  0.687  0.001-   9 2.23   2 2.44  16 2.50  15 2.55  13 2.57  13 2.58   1 2.84  19 2.93
                            19 2.93  14 2.98  14 2.98  17 2.98   9 3.06   4 3.12
 
  LATTYP: Found a triclinic cell.
 ALAT       =    15.1497112643
 B/A-ratio  =     0.4203130930
 C/A-ratio  =     0.2781514101
 COS(alpha) =     0.0001929323
 COS(beta)  =     0.2777572710
 COS(gamma) =     0.7188595089
  
  Lattice vectors:
  
 A1 = ( -10.8905140000,  -9.6516010000,  -4.2139120000)
 A2 = (  -6.3676220000,   0.0000000000,   0.0000000000)
 A3 = (  -0.0008130000,   0.0035230000,  -4.2139120000)


Analysis of symmetry for initial positions (statically):
=====================================================================
 Subroutine PRICEL returns:
 Original cell was already a primitive cell.
 

 Routine SETGRP: Setting up the symmetry group for a 
 triclinic supercell.


 Subroutine GETGRP returns: Found  1 space group operations
 (whereof  1 operations were pure point group operations)
 out of a pool of  2 trial point group operations.


The static configuration has the point symmetry C_1 .


Analysis of symmetry for dynamics (positions and initial velocities):
=====================================================================
 Subroutine PRICEL returns:
 Original cell was already a primitive cell.
 

 Routine SETGRP: Setting up the symmetry group for a 
 triclinic supercell.


 Subroutine GETGRP returns: Found  1 space group operations
 (whereof  1 operations were pure point group operations)
 out of a pool of  2 trial point group operations.


The dynamic configuration has the point symmetry C_1 .


 Subroutine INISYM returns: Found  1 space group operations
 (whereof  1 operations are pure point group operations),
 and found     1 'primitive' translations

 
 
 KPOINTS: EA                                      

Automatic generation of k-mesh.
Space group operators:
 irot       det(A)        alpha          n_x          n_y          n_z        tau_x        tau_y        tau_z
    1     1.000000     0.000000     1.000000     0.000000     0.000000     0.000000     0.000000     0.000000
 
 Subroutine IBZKPT returns following result:
 ===========================================
 
 Found      8 irreducible k-points:
 
 Following reciprocal coordinates:
            Coordinates               Weight
  0.000000  0.000000  0.000000      1.000000
  0.500000 -0.000000 -0.000000      1.000000
  0.000000  0.500000  0.000000      1.000000
  0.500000  0.500000  0.000000      1.000000
  0.000000  0.000000  0.333333      2.000000
  0.500000 -0.000000  0.333333      2.000000
  0.000000  0.500000  0.333333      2.000000
  0.500000  0.500000  0.333333      2.000000
 
 Following cartesian coordinates:
            Coordinates               Weight
  0.000000  0.000000  0.000000      1.000000
  0.078522  0.015009 -0.000003      1.000000
  0.000000  0.051786  0.000043      1.000000
  0.078522  0.066795  0.000041      1.000000
  0.000000  0.000000  0.079103      2.000000
  0.078522  0.015009  0.079100      2.000000
  0.000000  0.051786  0.079146      2.000000
  0.078522  0.066795  0.079144      2.000000
 


--------------------------------------------------------------------------------------------------------




 Dimension of arrays:
   k-points           NKPTS =      8   k-points in BZ     NKDIM =      8   number of bands    NBANDS=     68
   number of dos      NEDOS =    301   number of ions     NIONS =     20
   non local maximal  LDIM  =      6   non local SUM 2l+1 LMDIM =     18
   total plane-waves  NPLWV =  20160
   max r-space proj   IRMAX =      1   max aug-charges    IRDMAX=   4918
   dimension x,y,z NGX =    28 NGY =   40 NGZ =   18
   dimension x,y,z NGXF=    56 NGYF=   80 NGZF=   36
   support grid    NGXF=    56 NGYF=   80 NGZF=   36
   ions per type =              17   3
   NGX,Y,Z   is equivalent  to a cutoff of   7.31,  6.76,  7.10 a.u.
   NGXF,Y,Z  is equivalent  to a cutoff of  14.62, 13.53, 14.20 a.u.

 SYSTEM =  unknown system                          
 POSCAR =  EA0     6.368  9.830  4.214 90.05 89.99 

 Startparameter for this run:
   NWRITE =      2    write-flag & timer
   PREC   = normal    normal or accurate (medium, high low for compatibility)
   ISTART =      0    job   : 0-new  1-cont  2-samecut
   ICHARG =      2    charge: 1-file 2-atom 10-const
   ISPIN  =      1    spin polarized calculation?
   LNONCOLLINEAR =      F non collinear calculations
   LSORBIT =      F    spin-orbit coupling
   INIWAV =      1    electr: 0-lowe 1-rand  2-diag
   LASPH  =      F    aspherical Exc in radial PAW
   METAGGA=      F    non-selfconsistent MetaGGA calc.

 Electronic Relaxation 1
   ENCUT  =  267.9 eV  19.69 Ry    4.44 a.u.   8.50 13.12  5.62*2*pi/ulx,y,z
   ENINI  =  267.9     initial cutoff
   ENAUG  =  511.4 eV  augmentation charge cutoff
   NELM   =     60;   NELMIN=  2; NELMDL= -5     # of ELM steps 
   EDIFF  = 0.1E-04   stopping-criterion for ELM
   LREAL  =      F    real-space projection
   NLSPLINE    = F    spline interpolate recip. space projectors
   LCOMPAT=      F    compatible to vasp.4.4
   GGA_COMPAT  = T    GGA compatible to vasp.4.4-vasp.4.6
   LMAXPAW     = -100 max onsite density
   LMAXMIX     =    2 max onsite mixed and CHGCAR
   VOSKOWN=      0    Vosko Wilk Nusair interpolation
   ROPT   =    0.00000   0.00000
 Ionic relaxation
   EDIFFG = -.1E-01   stopping-criterion for IOM
   NSW    =    500    number of steps for IOM
   NBLOCK =      1;   KBLOCK =    500    inner block; outer block 
   IBRION =      2    ionic relax: 0-MD 1-quasi-New 2-CG
   NFREE  =      1    steps in history (QN), initial steepest desc. (CG)
   ISIF   =      3    stress and relaxation
   IWAVPR =     11    prediction:  0-non 1-charg 2-wave 3-comb
   ISYM   =      2    0-nonsym 1-usesym 2-fastsym
   LCORR  =      T    Harris-Foulkes like correction to forces

   POTIM  = 0.5000    time-step for ionic-motion
   TEIN   =    0.0    initial temperature
   TEBEG  =    0.0;   TEEND  =   0.0 temperature during run
   SMASS  =  -3.00    Nose mass-parameter (am)
   estimated Nose-frequenzy (Omega)   =  0.10E-29 period in steps =****** mass=  -0.927E-27a.u.
   SCALEE = 1.0000    scale energy and forces
   NPACO  =    256;   APACO  = 16.0  distance and # of slots for P.C.
   PSTRESS=    0.0 pullay stress

  Mass of Ions in am
   POMASS =  50.94 55.85
  Ionic Valenz
   ZVAL   =   5.00  8.00
  Atomic Wigner-Seitz radii
   RWIGS  =  -1.00 -1.00
  virtual crystal weights 
   VCA    =   1.00  1.00
   NELECT =     109.0000    total number of electrons
   NUPDOWN=      -1.0000    fix difference up-down

 DOS related values:
   EMIN   =  10.00;   EMAX   =-10.00  energy-range for DOS
   EFERMI =   0.00
   ISMEAR =     0;   SIGMA  =   0.10  broadening in eV -4-tet -1-fermi 0-gaus

 Electronic relaxation 2 (details)
   IALGO  =     38    algorithm
   LDIAG  =      T    sub-space diagonalisation (order eigenvalues)
   LSUBROT=      F    optimize rotation matrix (better conditioning)
   TURBO    =      0    0=normal 1=particle mesh
   IRESTART =      0    0=no restart 2=restart with 2 vectors
   NREBOOT  =      0    no. of reboots
   NMIN     =      0    reboot dimension
   EREF     =   0.00    reference energy to select bands
   IMIX   =      4    mixing-type and parameters
     AMIX     =   0.40;   BMIX     =  1.00
     AMIX_MAG =   1.60;   BMIX_MAG =  1.00
     AMIN     =   0.10
     WC   =   100.;   INIMIX=   1;  MIXPRE=   1;  MAXMIX= -45

 Intra band minimization:
   WEIMIN = 0.0010     energy-eigenvalue tresh-hold
   EBREAK =  0.37E-07  absolut break condition
   DEPER  =   0.30     relativ break condition  

   TIME   =   0.40     timestep for ELM

  volume/ion in A,a.u.               =      12.95        87.42
  Fermi-wavevector in a.u.,A,eV,Ry     =   1.226714  2.318154 20.474431  1.504828
  Thomas-Fermi vector in A             =   2.361705
 
 Write flags
   LWAVE        =      F    write WAVECAR
   LDOWNSAMPLE  =      F    k-point downsampling of WAVECAR
   LCHARG       =      F    write CHGCAR
   LVTOT        =      F    write LOCPOT, total local potential
   LVHAR        =      F    write LOCPOT, Hartree potential only
   LELF         =      F    write electronic localiz. function (ELF)
   LORBIT       =      0    0 simple, 1 ext, 2 COOP (PROOUT), +10 PAW based schemes


 Dipole corrections
   LMONO  =      F    monopole corrections only (constant potential shift)
   LDIPOL =      F    correct potential (dipole corrections)
   IDIPOL =      0    1-x, 2-y, 3-z, 4-all directions 
   EPSILON=  1.0000000 bulk dielectric constant

 Exchange correlation treatment:
   GGA     =    --    GGA type
   LEXCH   =     8    internal setting for exchange type
   VOSKOWN=      0    Vosko Wilk Nusair interpolation
   LHFCALC =     F    Hartree Fock is set to
   LHFONE  =     F    Hartree Fock one center treatment
   AEXX    =    0.0000 exact exchange contribution

 Linear response parameters
   LEPSILON=     F    determine dielectric tensor
   LRPA    =     F    only Hartree local field effects (RPA)
   LNABLA  =     F    use nabla operator in PAW spheres
   LVEL    =     F    velocity operator in full k-point grid
   LINTERFAST=   F  fast interpolation
   KINTER  =     0    interpolate to denser k-point grid
   CSHIFT  =0.1000    complex shift for real part using Kramers Kronig
   OMEGAMAX=  -1.0    maximum frequency
   DEG_THRESHOLD= 0.2000000E-02 threshold for treating states as degnerate
   RTIME   =   -0.100 relaxation time in fs
  (WPLASMAI=    0.000 imaginary part of plasma frequency in eV, 0.658/RTIME)
   DFIELD  = 0.0000000 0.0000000 0.0000000 field for delta impulse in time
 
 Orbital magnetization related:
   ORBITALMAG=     F  switch on orbital magnetization
   LCHIMAG   =     F  perturbation theory with respect to B field
   DQ        =  0.001000  dq finite difference perturbation B field
   LLRAUG    =     F  two centre corrections for induced B field



--------------------------------------------------------------------------------------------------------


 conjugate gradient relaxation of ions
 charge density and potential will be updated during run
 non-spin polarized calculation
 Variant of blocked Davidson
 Davidson routine will perform the subspace rotation
 perform sub-space diagonalisation
    after iterative eigenvector-optimisation
 modified Broyden-mixing scheme, WC =      100.0
 initial mixing is a Kerker type mixing with AMIX =  0.4000 and BMIX =      1.0000
 Hartree-type preconditioning will be used
 using additional bands           13
 reciprocal scheme for non local part
 use partial core corrections
 calculate Harris-corrections to forces 
   (improved forces if not selfconsistent)
 use gradient corrections 
 use of overlap-Matrix (Vanderbilt PP)
 Gauss-broadening in eV      SIGMA  =   0.10


--------------------------------------------------------------------------------------------------------


  energy-cutoff  :      267.88
  volume of cell :      259.07
      direct lattice vectors                 reciprocal lattice vectors
     6.367622000  0.000000000  0.000000000     0.157044498  0.030018504 -0.000005202
    -1.845543000  9.655124000  0.000000000     0.000000000  0.103571948  0.000086590
     0.000813000 -0.003523000  4.213912000     0.000000000  0.000000000  0.237309180

  length of vectors
     6.367622000  9.829926166  4.213913551     0.159887726  0.103571984  0.237309180


 
 k-points in units of 2pi/SCALE and weight: EA                                      
   0.00000000  0.00000000  0.00000000       0.083
   0.07852225  0.01500925 -0.00000260       0.083
   0.00000000  0.05178597  0.00004330       0.083
   0.07852225  0.06679523  0.00004069       0.083
   0.00000000  0.00000000  0.07910306       0.167
   0.07852225  0.01500925  0.07910046       0.167
   0.00000000  0.05178597  0.07914636       0.167
   0.07852225  0.06679523  0.07914375       0.167
 
 k-points in reciprocal lattice and weights: EA                                      
   0.00000000  0.00000000  0.00000000       0.083
   0.50000000 -0.00000000 -0.00000000       0.083
   0.00000000  0.50000000  0.00000000       0.083
   0.50000000  0.50000000  0.00000000       0.083
   0.00000000  0.00000000  0.33333333       0.167
   0.50000000 -0.00000000  0.33333333       0.167
   0.00000000  0.50000000  0.33333333       0.167
   0.50000000  0.50000000  0.33333333       0.167
 
 position of ions in fractional coordinates (direct lattice) 
   0.56810500  0.47433500  0.12407300
   0.96527500  0.57480200  0.12533600
   0.94955000  0.06840300  0.12533700
   0.16293700  0.37254200  0.12329400
   0.36455800  0.16720400  0.12409400
   0.75564700  0.26746100  0.12349000
   0.46432300  0.31953100  0.62344500
   0.05521100  0.22079900  0.62350800
   0.27215900  0.52524700  0.62462400
   0.26743900  0.02616400  0.62606400
   0.86055100  0.42785200  0.62360000
   0.83768700  0.93584400  0.50191000
   0.42846400  0.83612500  0.50180700
   0.64110400  0.63968300  0.50137600
   0.73024600  0.78827600  0.00174500
   0.13751800  0.88563000  0.00186500
   0.53562200  0.98606200  0.00182900
   0.66295900  0.12727300  0.62472400
   0.03491000  0.73738300  0.50163600
   0.33181200  0.68692200  0.00148400
 
 position of ions in cartesian coordinates  (Angst):
   2.74217313  4.57932613  0.52283270
   5.08578642  5.54934303  0.52815487
   5.92023669  0.65999788  0.52815909
   0.35007918  3.59650484  0.51955007
   2.01288626  1.61393817  0.52292120
   4.31816408  2.58193406  0.52037599
   2.36743201  3.08291503  2.62714237
  -0.05542436  2.12964511  2.62740784
   0.76414753  5.06912437  2.63211057
   1.65517266  0.25041104  2.63817860
   4.69055120  4.12876717  2.62779552
   3.60734188  9.03392164  2.11500457
   1.18560012  8.07112269  2.11457054
   2.90215307  6.17445234  2.11275434
   3.19513466  7.61089638  0.00735328
  -0.75880409  8.55086090  0.00785895
   1.59082010  9.52054444  0.00770725
   3.98709242  1.22663569  2.63253196
  -1.13817052  7.11775704  2.11384996
   0.84511051  6.63231186  0.00625345
 


--------------------------------------------------------------------------------------------------------


 k-point  1 :   0.0000 0.0000 0.0000  plane waves:    2567
 k-point  2 :   0.5000-0.0000-0.0000  plane waves:    2586
 k-point  3 :   0.0000 0.5000 0.0000  plane waves:    2586
 k-point  4 :   0.5000 0.5000 0.0000  plane waves:    2588
 k-point  5 :   0.0000 0.0000 0.3333  plane waves:    2575
 k-point  6 :   0.5000-0.0000 0.3333  plane waves:    2563
 k-point  7 :   0.0000 0.5000 0.3333  plane waves:    2590
 k-point  8 :   0.5000 0.5000 0.3333  plane waves:    2558

 maximum and minimum number of plane-waves per node :      2590     2558

 maximum number of plane-waves:      2590
 maximum index in each direction: 
   IXMAX=    8   IYMAX=   13   IZMAX=    5
   IXMIN=   -8   IYMIN=  -13   IZMIN=   -5


 serial   3D FFT for wavefunctions
 parallel 3D FFT for charge:
    minimum data exchange during FFTs selected (reduces bandwidth)


 total amount of memory used by VASP MPI-rank0    48221. kBytes
=======================================================================

   base      :      30000. kBytes
   nonl-proj :       6801. kBytes
   fftplans  :       1515. kBytes
   grid      :       3171. kBytes
   one-center:        311. kBytes
   wavefun   :       6423. kBytes
 
     INWAV:  cpu time    0.0000: real time    0.0000
 Broyden mixing: mesh for mixing (old mesh)
   NGX = 17   NGY = 27   NGZ = 11
  (NGX  = 56   NGY  = 80   NGZ  = 36)
  gives a total of   5049 points

 initial charge density was supplied:
 charge density of overlapping atoms calculated
 number of electron     109.0000000 magnetization 
 keeping initial charge density in first step


--------------------------------------------------------------------------------------------------------


 Maximum index for augmentation-charges         1160 (set IRDMAX)


--------------------------------------------------------------------------------------------------------


 First call to EWALD:  gamma=   0.278
 Maximum number of real-space cells 3x 2x 4
 Maximum number of reciprocal cells 3x 4x 2

    FEWALD:  cpu time    0.0025: real time    0.0025


--------------------------------------- Iteration      1(   1)  ---------------------------------------


    POTLOK:  cpu time    0.0345: real time    0.0346
    SETDIJ:  cpu time    0.0173: real time    0.0173
     EDDAV:  cpu time    1.4311: real time    1.4488
       DOS:  cpu time    0.0010: real time    0.0010
    --------------------------------------------
      LOOP:  cpu time    1.4839: real time    1.5017

 eigenvalue-minimisations  :  1088
 total energy-change (2. order) : 0.6331569E+03  (-0.2261854E+04)
 number of electron     109.0000000 magnetization 
 augmentation part      109.0000000 magnetization 

 Free energy of the ion-electron system (eV)
  ---------------------------------------------------
  alpha Z        PSCENC =       552.45260073
  Ewald energy   TEWEN  =     -5268.51278408
  -Hartree energ DENC   =      -825.53951429
  -exchange      EXHF   =         0.00000000
  -V(xc)+E(xc)   XCENC  =      -770.69130270
  PAW double counting   =      5171.05454107    -4356.08836938
  entropy T*S    EENTRO =        -0.07972408
  eigenvalues    EBANDS =      1443.07718101
  atomic energy  EATOM  =      4687.48422623
  Solvation  Ediel_sol  =         0.00000000
  ---------------------------------------------------
  free energy    TOTEN  =       633.15685452 eV

  energy without entropy =      633.23657860  energy(sigma->0) =      633.19671656


--------------------------------------------------------------------------------------------------------




--------------------------------------- Iteration      1(   2)  ---------------------------------------


     EDDAV:  cpu time    1.3996: real time    1.4012
       DOS:  cpu time    0.0012: real time    0.0012
    --------------------------------------------
      LOOP:  cpu time    1.4008: real time    1.4024

 eigenvalue-minimisations  :  1088
 total energy-change (2. order) :-0.7049773E+03  (-0.6809883E+03)
 number of electron     109.0000000 magnetization 
 augmentation part      109.0000000 magnetization 

 Free energy of the ion-electron system (eV)
  ---------------------------------------------------
  alpha Z        PSCENC =       552.45260073
  Ewald energy   TEWEN  =     -5268.51278408
  -Hartree energ DENC   =      -825.53951429
  -exchange      EXHF   =         0.00000000
  -V(xc)+E(xc)   XCENC  =      -770.69130270
  PAW double counting   =      5171.05454107    -4356.08836938
  entropy T*S    EENTRO =        -0.06268811
  eigenvalues    EBANDS =       738.08279770
  atomic energy  EATOM  =      4687.48422623
  Solvation  Ediel_sol  =         0.00000000
  ---------------------------------------------------
  free energy    TOTEN  =       -71.82049283 eV

  energy without entropy =      -71.75780471  energy(sigma->0) =      -71.78914877


--------------------------------------------------------------------------------------------------------




--------------------------------------- Iteration      1(   3)  ---------------------------------------


     EDDAV:  cpu time    2.1897: real time    2.1922
       DOS:  cpu time    0.0013: real time    0.0013
    --------------------------------------------
      LOOP:  cpu time    2.1910: real time    2.1935

 eigenvalue-minimisations  :  1824
 total energy-change (2. order) :-0.1190139E+03  (-0.1120093E+03)
 number of electron     109.0000000 magnetization 
 augmentation part      109.0000000 magnetization 

 Free energy of the ion-electron system (eV)
  ---------------------------------------------------
  alpha Z        PSCENC =       552.45260073
  Ewald energy   TEWEN  =     -5268.51278408
  -Hartree energ DENC   =      -825.53951429
  -exchange      EXHF   =         0.00000000
  -V(xc)+E(xc)   XCENC  =      -770.69130270
  PAW double counting   =      5171.05454107    -4356.08836938
  entropy T*S    EENTRO =        -0.06537638
  eigenvalues    EBANDS =       619.07158106
  atomic energy  EATOM  =      4687.48422623
  Solvation  Ediel_sol  =         0.00000000
  ---------------------------------------------------
  free energy    TOTEN  =      -190.83439773 eV

  energy without entropy =     -190.76902136  energy(sigma->0) =     -190.80170954


--------------------------------------------------------------------------------------------------------




--------------------------------------- Iteration      1(   4)  ---------------------------------------


     EDDAV:  cpu time    2.0688: real time    2.0714
       DOS:  cpu time    0.0014: real time    0.0013
    --------------------------------------------
      LOOP:  cpu time    2.0701: real time    2.0728

 eigenvalue-minimisations  :  1776
 total energy-change (2. order) :-0.1192938E+02  (-0.1141379E+02)
 number of electron     109.0000000 magnetization 
 augmentation part      109.0000000 magnetization 

 Free energy of the ion-electron system (eV)
  ---------------------------------------------------
  alpha Z        PSCENC =       552.45260073
  Ewald energy   TEWEN  =     -5268.51278408
  -Hartree energ DENC   =      -825.53951429
  -exchange      EXHF   =         0.00000000
  -V(xc)+E(xc)   XCENC  =      -770.69130270
  PAW double counting   =      5171.05454107    -4356.08836938
  entropy T*S    EENTRO =        -0.08412637
  eigenvalues    EBANDS =       607.16095016
  atomic energy  EATOM  =      4687.48422623
  Solvation  Ediel_sol  =         0.00000000
  ---------------------------------------------------
  free energy    TOTEN  =      -202.76377863 eV

  energy without entropy =     -202.67965226  energy(sigma->0) =     -202.72171544


--------------------------------------------------------------------------------------------------------




--------------------------------------- Iteration      1(   5)  ---------------------------------------


     EDDAV:  cpu time    2.0797: real time    2.0825
       DOS:  cpu time    0.0012: real time    0.0012
    CHARGE:  cpu time    0.0501: real time    0.0501
    MIXING:  cpu time    0.0016: real time    0.0016
    --------------------------------------------
      LOOP:  cpu time    2.1325: real time    2.1354

 eigenvalue-minimisations  :  1752
 total energy-change (2. order) :-0.5906148E+00  (-0.5751502E+00)
 number of electron     108.9999993 magnetization 
 augmentation part       34.3505353 magnetization 

 Broyden mixing:
  rms(total) = 0.56405E+01    rms(broyden)= 0.56392E+01
  rms(prec ) = 0.66951E+01
  weight for this iteration     100.00

 Free energy of the ion-electron system (eV)
  ---------------------------------------------------
  alpha Z        PSCENC =       552.45260073
  Ewald energy   TEWEN  =     -5268.51278408
  -Hartree energ DENC   =      -825.53951429
  -exchange      EXHF   =         0.00000000
  -V(xc)+E(xc)   XCENC  =      -770.69130270
  PAW double counting   =      5171.05454107    -4356.08836938
  entropy T*S    EENTRO =        -0.08545299
  eigenvalues    EBANDS =       606.57166200
  atomic energy  EATOM  =      4687.48422623
  Solvation  Ediel_sol  =         0.00000000
  ---------------------------------------------------
  free energy    TOTEN  =      -203.35439340 eV

  energy without entropy =     -203.26894041  energy(sigma->0) =     -203.31166690


--------------------------------------------------------------------------------------------------------




--------------------------------------- Iteration      1(   6)  ---------------------------------------


    POTLOK:  cpu time    0.0305: real time    0.0305
    SETDIJ:  cpu time    0.0177: real time    0.0178
     EDDAV:  cpu time    2.4720: real time    2.4747
       DOS:  cpu time    0.0015: real time    0.0015
    CHARGE:  cpu time    0.0552: real time    0.0553
    MIXING:  cpu time    0.0022: real time    0.0022
    --------------------------------------------
      LOOP:  cpu time    2.5790: real time    2.5819

 eigenvalue-minimisations  :  2112
 total energy-change (2. order) :-0.2553907E+02  (-0.4922030E+02)
 number of electron     109.0000108 magnetization 
 augmentation part       46.5872272 magnetization 

 Broyden mixing:
  rms(total) = 0.78163E+01    rms(broyden)= 0.78154E+01
  rms(prec ) = 0.12082E+02
  weight for this iteration     100.00

 eigenvalues of (default mixing * dielectric matrix)
  average eigenvalue GAMMA=   0.3707
  0.3707

 Free energy of the ion-electron system (eV)
  ---------------------------------------------------
  alpha Z        PSCENC =       552.45260073
  Ewald energy   TEWEN  =     -5268.51278408
  -Hartree energ DENC   =      -639.98580317
  -exchange      EXHF   =         0.00000000
  -V(xc)+E(xc)   XCENC  =      -773.09631276
  PAW double counting   =      6342.61474130    -5511.47268192
  entropy T*S    EENTRO =        -0.11514207
  eigenvalues    EBANDS =       381.73768977
  atomic energy  EATOM  =      4687.48422623
  Solvation  Ediel_sol  =         0.00000000
  ---------------------------------------------------
  free energy    TOTEN  =      -228.89346598 eV

  energy without entropy =     -228.77832390  energy(sigma->0) =     -228.83589494


--------------------------------------------------------------------------------------------------------




--------------------------------------- Iteration      1(   7)  ---------------------------------------


    POTLOK:  cpu time    0.0351: real time    0.0351
    SETDIJ:  cpu time    0.0170: real time    0.0170
     EDDAV:  cpu time    2.4829: real time    2.4871
       DOS:  cpu time    0.0015: real time    0.0015
    CHARGE:  cpu time    0.0543: real time    0.0544
    MIXING:  cpu time    0.0021: real time    0.0021
    --------------------------------------------
      LOOP:  cpu time    2.5929: real time    2.5971

 eigenvalue-minimisations  :  2100
 total energy-change (2. order) : 0.4681287E+02  (-0.4411630E+02)
 number of electron     108.9999983 magnetization 
 augmentation part       42.6702505 magnetization 

 Broyden mixing:
  rms(total) = 0.25931E+01    rms(broyden)= 0.25908E+01
  rms(prec ) = 0.50592E+01
  weight for this iteration     100.00

 eigenvalues of (default mixing * dielectric matrix)
  average eigenvalue GAMMA=   0.5795
  0.9218  0.2371

 Free energy of the ion-electron system (eV)
  ---------------------------------------------------
  alpha Z        PSCENC =       552.45260073
  Ewald energy   TEWEN  =     -5268.51278408
  -Hartree energ DENC   =      -698.91867330
  -exchange      EXHF   =         0.00000000
  -V(xc)+E(xc)   XCENC  =      -769.88600729
  PAW double counting   =      6689.25232518    -5872.62811993
  entropy T*S    EENTRO =        -0.08142565
  eigenvalues    EBANDS =       498.75726438
  atomic energy  EATOM  =      4687.48422623
  Solvation  Ediel_sol  =         0.00000000
  ---------------------------------------------------
  free energy    TOTEN  =      -182.08059374 eV

  energy without entropy =     -181.99916808  energy(sigma->0) =     -182.03988091


--------------------------------------------------------------------------------------------------------




--------------------------------------- Iteration      1(   8)  ---------------------------------------


    POTLOK:  cpu time    0.0312: real time    0.0313
    SETDIJ:  cpu time    0.0173: real time    0.0173
     EDDAV:  cpu time    2.4743: real time    2.4853
       DOS:  cpu time    0.0014: real time    0.0014
    CHARGE:  cpu time    0.0525: real time    0.0525
    MIXING:  cpu time    0.0018: real time    0.0018
    --------------------------------------------
      LOOP:  cpu time    2.5785: real time    2.5896

 eigenvalue-minimisations  :  2128
 total energy-change (2. order) :-0.8783974E+01  (-0.2249920E+02)
 number of electron     108.9999966 magnetization 
 augmentation part       43.4266328 magnetization 

 Broyden mixing:
  rms(total) = 0.40926E+01    rms(broyden)= 0.40921E+01
  rms(prec ) = 0.66325E+01
  weight for this iteration     100.00

 eigenvalues of (default mixing * dielectric matrix)
  average eigenvalue GAMMA=   0.4778
  1.0016  0.2553  0.1764

 Free energy of the ion-electron system (eV)
  ---------------------------------------------------
  alpha Z        PSCENC =       552.45260073
  Ewald energy   TEWEN  =     -5268.51278408
  -Hartree energ DENC   =      -692.33956970
  -exchange      EXHF   =         0.00000000
  -V(xc)+E(xc)   XCENC  =      -769.42404275
  PAW double counting   =      7092.82089063    -6284.37856987
  entropy T*S    EENTRO =        -0.11286488
  eigenvalues    EBANDS =       491.14554575
  atomic energy  EATOM  =      4687.48422623
  Solvation  Ediel_sol  =         0.00000000
  ---------------------------------------------------
  free energy    TOTEN  =      -190.86456794 eV

  energy without entropy =     -190.75170307  energy(sigma->0) =     -190.80813550


--------------------------------------------------------------------------------------------------------




--------------------------------------- Iteration      1(   9)  ---------------------------------------


    POTLOK:  cpu time    0.0302: real time    0.0303
    SETDIJ:  cpu time    0.0175: real time    0.0175
     EDDAV:  cpu time    2.4470: real time    2.4498
       DOS:  cpu time    0.0015: real time    0.0015
    CHARGE:  cpu time    0.0533: real time    0.0533
    MIXING:  cpu time    0.0017: real time    0.0017
    --------------------------------------------
      LOOP:  cpu time    2.5511: real time    2.5540

 eigenvalue-minimisations  :  2168
 total energy-change (2. order) : 0.1272242E+02  (-0.1192045E+02)
 number of electron     109.0000032 magnetization 
 augmentation part       43.2226631 magnetization 

 Broyden mixing:
  rms(total) = 0.20839E+01    rms(broyden)= 0.20833E+01
  rms(prec ) = 0.32015E+01
  weight for this iteration     100.00

 eigenvalues of (default mixing * dielectric matrix)
  average eigenvalue GAMMA=   0.4237
  0.9985  0.3631  0.1866  0.1465

 Free energy of the ion-electron system (eV)
  ---------------------------------------------------
  alpha Z        PSCENC =       552.45260073
  Ewald energy   TEWEN  =     -5268.51278408
  -Hartree energ DENC   =      -672.79947389
  -exchange      EXHF   =         0.00000000
  -V(xc)+E(xc)   XCENC  =      -770.10854162
  PAW double counting   =      7212.79349819    -6404.96514695
  entropy T*S    EENTRO =        -0.11171454
  eigenvalues    EBANDS =       485.62518810
  atomic energy  EATOM  =      4687.48422623
  Solvation  Ediel_sol  =         0.00000000
  ---------------------------------------------------
  free energy    TOTEN  =      -178.14214783 eV

  energy without entropy =     -178.03043329  energy(sigma->0) =     -178.08629056


--------------------------------------------------------------------------------------------------------




--------------------------------------- Iteration      1(  10)  ---------------------------------------


    POTLOK:  cpu time    0.0294: real time    0.0294
    SETDIJ:  cpu time    0.0175: real time    0.0175
     EDDAV:  cpu time    2.4479: real time    2.4510
       DOS:  cpu time    0.0015: real time    0.0015
    CHARGE:  cpu time    0.0522: real time    0.0522
    MIXING:  cpu time    0.0019: real time    0.0019
    --------------------------------------------
      LOOP:  cpu time    2.5503: real time    2.5535

 eigenvalue-minimisations  :  2176
 total energy-change (2. order) : 0.1631511E+01  (-0.2382691E+01)
 number of electron     109.0000015 magnetization 
 augmentation part       42.8432903 magnetization 

 Broyden mixing:
  rms(total) = 0.10998E+01    rms(broyden)= 0.10993E+01
  rms(prec ) = 0.14739E+01
  weight for this iteration     100.00

 eigenvalues of (default mixing * dielectric matrix)
  average eigenvalue GAMMA=   0.3746
  0.9959  0.3187  0.2142  0.1721  0.1721

 Free energy of the ion-electron system (eV)
  ---------------------------------------------------
  alpha Z        PSCENC =       552.45260073
  Ewald energy   TEWEN  =     -5268.51278408
  -Hartree energ DENC   =      -674.31466233
  -exchange      EXHF   =         0.00000000
  -V(xc)+E(xc)   XCENC  =      -769.82465040
  PAW double counting   =      7278.34337297    -6471.52527107
  entropy T*S    EENTRO =        -0.10806490
  eigenvalues    EBANDS =       489.49459631
  atomic energy  EATOM  =      4687.48422623
  Solvation  Ediel_sol  =         0.00000000
  ---------------------------------------------------
  free energy    TOTEN  =      -176.51063653 eV

  energy without entropy =     -176.40257164  energy(sigma->0) =     -176.45660409


--------------------------------------------------------------------------------------------------------




--------------------------------------- Iteration      1(  11)  ---------------------------------------


    POTLOK:  cpu time    0.0287: real time    0.0287
    SETDIJ:  cpu time    0.0170: real time    0.0170
     EDDAV:  cpu time    2.2580: real time    2.2606
       DOS:  cpu time    0.0014: real time    0.0014
    CHARGE:  cpu time    0.0517: real time    0.0518
    MIXING:  cpu time    0.0023: real time    0.0023
    --------------------------------------------
      LOOP:  cpu time    2.3591: real time    2.3618

 eigenvalue-minimisations  :  1960
 total energy-change (2. order) : 0.2365013E+00  (-0.2184153E+00)
 number of electron     109.0000011 magnetization 
 augmentation part       42.6975165 magnetization 

 Broyden mixing:
  rms(total) = 0.91262E+00    rms(broyden)= 0.91256E+00
  rms(prec ) = 0.11818E+01
  weight for this iteration     100.00

 eigenvalues of (default mixing * dielectric matrix)
  average eigenvalue GAMMA=   0.4600
  1.0386  0.5759  0.5759  0.2067  0.2067  0.1562

 Free energy of the ion-electron system (eV)
  ---------------------------------------------------
  alpha Z        PSCENC =       552.45260073
  Ewald energy   TEWEN  =     -5268.51278408
  -Hartree energ DENC   =      -674.33524535
  -exchange      EXHF   =         0.00000000
  -V(xc)+E(xc)   XCENC  =      -769.66771344
  PAW double counting   =      7320.46939103    -6514.07179215
  entropy T*S    EENTRO =        -0.10837192
  eigenvalues    EBANDS =       490.01555369
  atomic energy  EATOM  =      4687.48422623
  Solvation  Ediel_sol  =         0.00000000
  ---------------------------------------------------
  free energy    TOTEN  =      -176.27413526 eV

  energy without entropy =     -176.16576334  energy(sigma->0) =     -176.21994930


--------------------------------------------------------------------------------------------------------




--------------------------------------- Iteration      1(  12)  ---------------------------------------


    POTLOK:  cpu time    0.0328: real time    0.0329
    SETDIJ:  cpu time    0.0171: real time    0.0171
     EDDAV:  cpu time    2.3770: real time    2.3797
       DOS:  cpu time    0.0015: real time    0.0015
    CHARGE:  cpu time    0.0509: real time    0.0510
    MIXING:  cpu time    0.0020: real time    0.0020
    --------------------------------------------
      LOOP:  cpu time    2.4814: real time    2.4842

 eigenvalue-minimisations  :  2120
 total energy-change (2. order) :-0.3429947E-01  (-0.1511791E+00)
 number of electron     109.0000005 magnetization 
 augmentation part       42.9821293 magnetization 

 Broyden mixing:
  rms(total) = 0.93637E+00    rms(broyden)= 0.93629E+00
  rms(prec ) = 0.12768E+01
  weight for this iteration     100.00

 eigenvalues of (default mixing * dielectric matrix)
  average eigenvalue GAMMA=   0.5214
  1.1166  0.8880  0.8880  0.2438  0.1976  0.1580  0.1580

 Free energy of the ion-electron system (eV)
  ---------------------------------------------------
  alpha Z        PSCENC =       552.45260073
  Ewald energy   TEWEN  =     -5268.51278408
  -Hartree energ DENC   =      -669.61914755
  -exchange      EXHF   =         0.00000000
  -V(xc)+E(xc)   XCENC  =      -769.64650028
  PAW double counting   =      7382.65250989    -6576.12104711
  entropy T*S    EENTRO =        -0.10805170
  eigenvalues    EBANDS =       485.10975913
  atomic energy  EATOM  =      4687.48422623
  Solvation  Ediel_sol  =         0.00000000
  ---------------------------------------------------
  free energy    TOTEN  =      -176.30843473 eV

  energy without entropy =     -176.20038303  energy(sigma->0) =     -176.25440888


--------------------------------------------------------------------------------------------------------




--------------------------------------- Iteration      1(  13)  ---------------------------------------


    POTLOK:  cpu time    0.0293: real time    0.0294
    SETDIJ:  cpu time    0.0170: real time    0.0170
     EDDAV:  cpu time    2.3270: real time    2.3377
       DOS:  cpu time    0.0015: real time    0.0015
    CHARGE:  cpu time    0.0517: real time    0.0517
    MIXING:  cpu time    0.0026: real time    0.0026
    --------------------------------------------
      LOOP:  cpu time    2.4291: real time    2.4398

 eigenvalue-minimisations  :  2096
 total energy-change (2. order) : 0.3028005E+00  (-0.2897537E+00)
 number of electron     109.0000007 magnetization 
 augmentation part       43.4408798 magnetization 

 Broyden mixing:
  rms(total) = 0.74061E+00    rms(broyden)= 0.74051E+00
  rms(prec ) = 0.10143E+01
  weight for this iteration     100.00

 eigenvalues of (default mixing * dielectric matrix)
  average eigenvalue GAMMA=   0.5877
  1.3539  1.3539  0.8380  0.4436  0.1964  0.1836  0.1836  0.1484

 Free energy of the ion-electron system (eV)
  ---------------------------------------------------
  alpha Z        PSCENC =       552.45260073
  Ewald energy   TEWEN  =     -5268.51278408
  -Hartree energ DENC   =      -663.50052954
  -exchange      EXHF   =         0.00000000
  -V(xc)+E(xc)   XCENC  =      -769.31524689
  PAW double counting   =      7551.33486509    -6745.29561513
  entropy T*S    EENTRO =        -0.11534278
  eigenvalues    EBANDS =       479.46219210
  atomic energy  EATOM  =      4687.48422623
  Solvation  Ediel_sol  =         0.00000000
  ---------------------------------------------------
  free energy    TOTEN  =      -176.00563427 eV

  energy without entropy =     -175.89029149  energy(sigma->0) =     -175.94796288


--------------------------------------------------------------------------------------------------------




--------------------------------------- Iteration      1(  14)  ---------------------------------------


    POTLOK:  cpu time    0.0299: real time    0.0299
    SETDIJ:  cpu time    0.0169: real time    0.0169
     EDDAV:  cpu time    2.3033: real time    2.3101
       DOS:  cpu time    0.0014: real time    0.0014
    CHARGE:  cpu time    0.0530: real time    0.0537
    MIXING:  cpu time    0.0023: real time    0.0023
    --------------------------------------------
      LOOP:  cpu time    2.4069: real time    2.4144

 eigenvalue-minimisations  :  2120
 total energy-change (2. order) : 0.1824989E-02  (-0.2792983E+00)
 number of electron     109.0000009 magnetization 
 augmentation part       43.6823572 magnetization 

 Broyden mixing:
  rms(total) = 0.66091E+00    rms(broyden)= 0.66073E+00
  rms(prec ) = 0.98234E+00
  weight for this iteration     100.00

 eigenvalues of (default mixing * dielectric matrix)
  average eigenvalue GAMMA=   0.6187
  1.7053  1.7053  0.6348  0.6348  0.2029  0.2029  0.1707  0.1707  0.1408

 Free energy of the ion-electron system (eV)
  ---------------------------------------------------
  alpha Z        PSCENC =       552.45260073
  Ewald energy   TEWEN  =     -5268.51278408
  -Hartree energ DENC   =      -660.01644313
  -exchange      EXHF   =         0.00000000
  -V(xc)+E(xc)   XCENC  =      -769.16552108
  PAW double counting   =      7648.19644403    -6842.69754384
  entropy T*S    EENTRO =        -0.11691412
  eigenvalues    EBANDS =       476.37212599
  atomic energy  EATOM  =      4687.48422623
  Solvation  Ediel_sol  =         0.00000000
  ---------------------------------------------------
  free energy    TOTEN  =      -176.00380928 eV

  energy without entropy =     -175.88689516  energy(sigma->0) =     -175.94535222


--------------------------------------------------------------------------------------------------------




--------------------------------------- Iteration      1(  15)  ---------------------------------------


    POTLOK:  cpu time    0.0310: real time    0.0311
    SETDIJ:  cpu time    0.0169: real time    0.0193
     EDDAV:  cpu time    2.4316: real time    2.4346
       DOS:  cpu time    0.0014: real time    0.0014
    CHARGE:  cpu time    0.0517: real time    0.0518
    MIXING:  cpu time    0.0024: real time    0.0025
    --------------------------------------------
      LOOP:  cpu time    2.5351: real time    2.5406

 eigenvalue-minimisations  :  2120
 total energy-change (2. order) : 0.2061710E+00  (-0.1152504E+00)
 number of electron     109.0000005 magnetization 
 augmentation part       43.6893624 magnetization 

 Broyden mixing:
  rms(total) = 0.35796E+00    rms(broyden)= 0.35781E+00
  rms(prec ) = 0.48421E+00
  weight for this iteration     100.00

 eigenvalues of (default mixing * dielectric matrix)
  average eigenvalue GAMMA=   0.5899
  1.7748  1.7748  0.6059  0.6059  0.2364  0.2364  0.1768  0.1768  0.1714  0.1401

 Free energy of the ion-electron system (eV)
  ---------------------------------------------------
  alpha Z        PSCENC =       552.45260073
  Ewald energy   TEWEN  =     -5268.51278408
  -Hartree energ DENC   =      -659.69927210
  -exchange      EXHF   =         0.00000000
  -V(xc)+E(xc)   XCENC  =      -769.04367344
  PAW double counting   =      7707.41355503    -6902.69090586
  entropy T*S    EENTRO =        -0.12107127
  eigenvalues    EBANDS =       476.91968646
  atomic energy  EATOM  =      4687.48422623
  Solvation  Ediel_sol  =         0.00000000
  ---------------------------------------------------
  free energy    TOTEN  =      -175.79763830 eV

  energy without entropy =     -175.67656702  energy(sigma->0) =     -175.73710266


--------------------------------------------------------------------------------------------------------




--------------------------------------- Iteration      1(  16)  ---------------------------------------


    POTLOK:  cpu time    0.0305: real time    0.0307
    SETDIJ:  cpu time    0.0167: real time    0.0168
     EDDAV:  cpu time    2.3198: real time    2.3225
       DOS:  cpu time    0.0015: real time    0.0015
    CHARGE:  cpu time    0.0519: real time    0.0520
    MIXING:  cpu time    0.0024: real time    0.0024
    --------------------------------------------
      LOOP:  cpu time    2.4229: real time    2.4258

 eigenvalue-minimisations  :  2088
 total energy-change (2. order) : 0.4063114E-01  (-0.2882135E-01)
 number of electron     109.0000003 magnetization 
 augmentation part       43.6608157 magnetization 

 Broyden mixing:
  rms(total) = 0.25137E+00    rms(broyden)= 0.25135E+00
  rms(prec ) = 0.28633E+00
  weight for this iteration     100.00

 eigenvalues of (default mixing * dielectric matrix)
  average eigenvalue GAMMA=   0.6303
  1.8856  1.8856  0.7179  0.6863  0.6863  0.2232  0.2042  0.1746  0.1746  0.1528
  0.1425

 Free energy of the ion-electron system (eV)
  ---------------------------------------------------
  alpha Z        PSCENC =       552.45260073
  Ewald energy   TEWEN  =     -5268.51278408
  -Hartree energ DENC   =      -660.22772512
  -exchange      EXHF   =         0.00000000
  -V(xc)+E(xc)   XCENC  =      -768.98750475
  PAW double counting   =      7719.57926311    -6915.14989728
  entropy T*S    EENTRO =        -0.11913107
  eigenvalues    EBANDS =       477.72394508
  atomic energy  EATOM  =      4687.48422623
  Solvation  Ediel_sol  =         0.00000000
  ---------------------------------------------------
  free energy    TOTEN  =      -175.75700716 eV

  energy without entropy =     -175.63787609  energy(sigma->0) =     -175.69744162


--------------------------------------------------------------------------------------------------------




--------------------------------------- Iteration      1(  17)  ---------------------------------------


    POTLOK:  cpu time    0.0295: real time    0.0295
    SETDIJ:  cpu time    0.0175: real time    0.0175
     EDDAV:  cpu time    2.3176: real time    2.3207
       DOS:  cpu time    0.0015: real time    0.0015
    CHARGE:  cpu time    0.0512: real time    0.0513
    MIXING:  cpu time    0.0025: real time    0.0025
    --------------------------------------------
      LOOP:  cpu time    2.4198: real time    2.4230

 eigenvalue-minimisations  :  2080
 total energy-change (2. order) : 0.6441295E-02  (-0.8913441E-02)
 number of electron     108.9999999 magnetization 
 augmentation part       43.5721032 magnetization 

 Broyden mixing:
  rms(total) = 0.19354E+00    rms(broyden)= 0.19353E+00
  rms(prec ) = 0.27098E+00
  weight for this iteration     100.00

 eigenvalues of (default mixing * dielectric matrix)
  average eigenvalue GAMMA=   0.6258
  2.3139  1.5831  0.7680  0.7680  0.7501  0.2526  0.2224  0.1944  0.1944  0.1418
  0.1602  0.1602

 Free energy of the ion-electron system (eV)
  ---------------------------------------------------
  alpha Z        PSCENC =       552.45260073
  Ewald energy   TEWEN  =     -5268.51278408
  -Hartree energ DENC   =      -661.25723694
  -exchange      EXHF   =         0.00000000
  -V(xc)+E(xc)   XCENC  =      -768.94367650
  PAW double counting   =      7728.32999538    -6924.54895410
  entropy T*S    EENTRO =        -0.11900182
  eigenvalues    EBANDS =       479.36426523
  atomic energy  EATOM  =      4687.48422623
  Solvation  Ediel_sol  =         0.00000000
  ---------------------------------------------------
  free energy    TOTEN  =      -175.75056586 eV

  energy without entropy =     -175.63156405  energy(sigma->0) =     -175.69106496


--------------------------------------------------------------------------------------------------------




--------------------------------------- Iteration      1(  18)  ---------------------------------------


    POTLOK:  cpu time    0.0294: real time    0.0294
    SETDIJ:  cpu time    0.0168: real time    0.0168
     EDDAV:  cpu time    2.3661: real time    2.3702
       DOS:  cpu time    0.0015: real time    0.0015
    CHARGE:  cpu time    0.0525: real time    0.0526
    MIXING:  cpu time    0.0023: real time    0.0023
    --------------------------------------------
      LOOP:  cpu time    2.4687: real time    2.4729

 eigenvalue-minimisations  :  2064
 total energy-change (2. order) : 0.1437816E-01  (-0.5203928E-02)
 number of electron     109.0000002 magnetization 
 augmentation part       43.5530706 magnetization 

 Broyden mixing:
  rms(total) = 0.13518E+00    rms(broyden)= 0.13517E+00
  rms(prec ) = 0.16336E+00
  weight for this iteration     100.00

 eigenvalues of (default mixing * dielectric matrix)
  average eigenvalue GAMMA=   0.6597
  2.3093  1.2321  1.2321  1.1417  0.7226  0.7226  0.2123  0.2123  0.1741  0.1741
  0.1575  0.1411  0.1440

 Free energy of the ion-electron system (eV)
  ---------------------------------------------------
  alpha Z        PSCENC =       552.45260073
  Ewald energy   TEWEN  =     -5268.51278408
  -Hartree energ DENC   =      -661.26748666
  -exchange      EXHF   =         0.00000000
  -V(xc)+E(xc)   XCENC  =      -768.95068217
  PAW double counting   =      7728.76404991    -6925.19330184
  entropy T*S    EENTRO =        -0.11836848
  eigenvalues    EBANDS =       479.60555866
  atomic energy  EATOM  =      4687.48422623
  Solvation  Ediel_sol  =         0.00000000
  ---------------------------------------------------
  free energy    TOTEN  =      -175.73618770 eV

  energy without entropy =     -175.61781921  energy(sigma->0) =     -175.67700346


--------------------------------------------------------------------------------------------------------




--------------------------------------- Iteration      1(  19)  ---------------------------------------


    POTLOK:  cpu time    0.0298: real time    0.0300
    SETDIJ:  cpu time    0.0167: real time    0.0168
     EDDAV:  cpu time    2.1562: real time    2.1587
       DOS:  cpu time    0.0015: real time    0.0015
    CHARGE:  cpu time    0.0509: real time    0.0510
    MIXING:  cpu time    0.0025: real time    0.0025
    --------------------------------------------
      LOOP:  cpu time    2.2576: real time    2.2603

 eigenvalue-minimisations  :  1864
 total energy-change (2. order) : 0.4382206E-02  (-0.5337453E-02)
 number of electron     109.0000001 magnetization 
 augmentation part       43.4865891 magnetization 

 Broyden mixing:
  rms(total) = 0.10143E+00    rms(broyden)= 0.10142E+00
  rms(prec ) = 0.14088E+00
  weight for this iteration     100.00

 eigenvalues of (default mixing * dielectric matrix)
  average eigenvalue GAMMA=   0.6637
  2.4161  1.5492  1.5492  0.8987  0.7290  0.7290  0.2156  0.2156  0.1942  0.1753
  0.1753  0.1576  0.1433  0.1433

 Free energy of the ion-electron system (eV)
  ---------------------------------------------------
  alpha Z        PSCENC =       552.45260073
  Ewald energy   TEWEN  =     -5268.51278408
  -Hartree energ DENC   =      -661.91239910
  -exchange      EXHF   =         0.00000000
  -V(xc)+E(xc)   XCENC  =      -768.93765408
  PAW double counting   =      7729.42659110    -6926.26310396
  entropy T*S    EENTRO =        -0.11935866
  eigenvalues    EBANDS =       480.65007634
  atomic energy  EATOM  =      4687.48422623
  Solvation  Ediel_sol  =         0.00000000
  ---------------------------------------------------
  free energy    TOTEN  =      -175.73180549 eV

  energy without entropy =     -175.61244683  energy(sigma->0) =     -175.67212616


--------------------------------------------------------------------------------------------------------




--------------------------------------- Iteration      1(  20)  ---------------------------------------


    POTLOK:  cpu time    0.0282: real time    0.0282
    SETDIJ:  cpu time    0.0165: real time    0.0165
     EDDAV:  cpu time    2.2808: real time    2.2841
       DOS:  cpu time    0.0015: real time    0.0015
    CHARGE:  cpu time    0.0539: real time    0.0540
    MIXING:  cpu time    0.0033: real time    0.0033
    --------------------------------------------
      LOOP:  cpu time    2.3842: real time    2.3876

 eigenvalue-minimisations  :  1952
 total energy-change (2. order) : 0.6592197E-02  (-0.3601023E-02)
 number of electron     109.0000002 magnetization 
 augmentation part       43.4590391 magnetization 

 Broyden mixing:
  rms(total) = 0.52571E-01    rms(broyden)= 0.52560E-01
  rms(prec ) = 0.64126E-01
  weight for this iteration     100.00

 eigenvalues of (default mixing * dielectric matrix)
  average eigenvalue GAMMA=   0.6567
  2.4073  1.6390  1.6390  0.9178  0.6981  0.6981  0.4534  0.2131  0.2131  0.1800
  0.1800  0.1699  0.1573  0.1441  0.1397

 Free energy of the ion-electron system (eV)
  ---------------------------------------------------
  alpha Z        PSCENC =       552.45260073
  Ewald energy   TEWEN  =     -5268.51278408
  -Hartree energ DENC   =      -662.01526790
  -exchange      EXHF   =         0.00000000
  -V(xc)+E(xc)   XCENC  =      -768.94520302
  PAW double counting   =      7728.41293047    -6925.45049036
  entropy T*S    EENTRO =        -0.11816695
  eigenvalues    EBANDS =       480.96694158
  atomic energy  EATOM  =      4687.48422623
  Solvation  Ediel_sol  =         0.00000000
  ---------------------------------------------------
  free energy    TOTEN  =      -175.72521329 eV

  energy without entropy =     -175.60704635  energy(sigma->0) =     -175.66612982


--------------------------------------------------------------------------------------------------------




--------------------------------------- Iteration      1(  21)  ---------------------------------------


    POTLOK:  cpu time    0.0316: real time    0.0317
    SETDIJ:  cpu time    0.0178: real time    0.0205
     EDDAV:  cpu time    2.1575: real time    2.1600
       DOS:  cpu time    0.0016: real time    0.0016
    CHARGE:  cpu time    0.0529: real time    0.0530
    MIXING:  cpu time    0.0030: real time    0.0030
    --------------------------------------------
      LOOP:  cpu time    2.2645: real time    2.2698

 eigenvalue-minimisations  :  1768
 total energy-change (2. order) : 0.5085551E-03  (-0.5546974E-03)
 number of electron     109.0000002 magnetization 
 augmentation part       43.4463121 magnetization 

 Broyden mixing:
  rms(total) = 0.43537E-01    rms(broyden)= 0.43536E-01
  rms(prec ) = 0.52217E-01
  weight for this iteration     100.00

 eigenvalues of (default mixing * dielectric matrix)
  average eigenvalue GAMMA=   0.7010
  2.4775  1.9206  1.9206  1.0520  0.8001  0.7142  0.7142  0.2164  0.2164  0.1979
  0.1979  0.1730  0.1730  0.1585  0.1422  0.1422

 Free energy of the ion-electron system (eV)
  ---------------------------------------------------
  alpha Z        PSCENC =       552.45260073
  Ewald energy   TEWEN  =     -5268.51278408
  -Hartree energ DENC   =      -662.13114750
  -exchange      EXHF   =         0.00000000
  -V(xc)+E(xc)   XCENC  =      -768.94521080
  PAW double counting   =      7728.11146377    -6925.21528296
  entropy T*S    EENTRO =        -0.11824169
  eigenvalues    EBANDS =       481.14967156
  atomic energy  EATOM  =      4687.48422623
  Solvation  Ediel_sol  =         0.00000000
  ---------------------------------------------------
  free energy    TOTEN  =      -175.72470474 eV

  energy without entropy =     -175.60646305  energy(sigma->0) =     -175.66558390


--------------------------------------------------------------------------------------------------------




--------------------------------------- Iteration      1(  22)  ---------------------------------------


    POTLOK:  cpu time    0.0307: real time    0.0308
    SETDIJ:  cpu time    0.0172: real time    0.0172
     EDDAV:  cpu time    2.0237: real time    2.0273
       DOS:  cpu time    0.0017: real time    0.0017
    CHARGE:  cpu time    0.0524: real time    0.0525
    MIXING:  cpu time    0.0031: real time    0.0031
    --------------------------------------------
      LOOP:  cpu time    2.1288: real time    2.1325

 eigenvalue-minimisations  :  1624
 total energy-change (2. order) : 0.8878952E-03  (-0.2923827E-03)
 number of electron     109.0000001 magnetization 
 augmentation part       43.4197757 magnetization 

 Broyden mixing:
  rms(total) = 0.20804E-01    rms(broyden)= 0.20802E-01
  rms(prec ) = 0.24937E-01
  weight for this iteration     100.00

 eigenvalues of (default mixing * dielectric matrix)
  average eigenvalue GAMMA=   0.7184
  2.4632  2.0304  2.0304  1.0940  0.7471  0.7471  0.7379  0.7379  0.2277  0.2129
  0.2129  0.1794  0.1794  0.1690  0.1587  0.1422  0.1422

 Free energy of the ion-electron system (eV)
  ---------------------------------------------------
  alpha Z        PSCENC =       552.45260073
  Ewald energy   TEWEN  =     -5268.51278408
  -Hartree energ DENC   =      -662.36254809
  -exchange      EXHF   =         0.00000000
  -V(xc)+E(xc)   XCENC  =      -768.94343021
  PAW double counting   =      7728.29877452    -6925.56354015
  entropy T*S    EENTRO =        -0.11792934
  eigenvalues    EBANDS =       481.54081354
  atomic energy  EATOM  =      4687.48422623
  Solvation  Ediel_sol  =         0.00000000
  ---------------------------------------------------
  free energy    TOTEN  =      -175.72381684 eV

  energy without entropy =     -175.60588751  energy(sigma->0) =     -175.66485218


--------------------------------------------------------------------------------------------------------




--------------------------------------- Iteration      1(  23)  ---------------------------------------


    POTLOK:  cpu time    0.0306: real time    0.0306
    SETDIJ:  cpu time    0.0172: real time    0.0172
     EDDAV:  cpu time    2.1060: real time    2.1085
       DOS:  cpu time    0.0016: real time    0.0016
    CHARGE:  cpu time    0.0520: real time    0.0521
    MIXING:  cpu time    0.0032: real time    0.0032
    --------------------------------------------
      LOOP:  cpu time    2.2105: real time    2.2132

 eigenvalue-minimisations  :  1728
 total energy-change (2. order) :-0.2958094E-04  (-0.1935918E-03)
 number of electron     109.0000002 magnetization 
 augmentation part       43.4116867 magnetization 

 Broyden mixing:
  rms(total) = 0.17161E-01    rms(broyden)= 0.17160E-01
  rms(prec ) = 0.23839E-01
  weight for this iteration     100.00

 eigenvalues of (default mixing * dielectric matrix)
  average eigenvalue GAMMA=   0.7314
  2.5629  2.1218  2.1218  1.3221  0.8873  0.8371  0.7400  0.7400  0.2155  0.2155
  0.2143  0.2143  0.1792  0.1792  0.1706  0.1584  0.1422  0.1422

 Free energy of the ion-electron system (eV)
  ---------------------------------------------------
  alpha Z        PSCENC =       552.45260073
  Ewald energy   TEWEN  =     -5268.51278408
  -Hartree energ DENC   =      -662.42315028
  -exchange      EXHF   =         0.00000000
  -V(xc)+E(xc)   XCENC  =      -768.94414393
  PAW double counting   =      7728.58896545    -6925.89148035
  entropy T*S    EENTRO =        -0.11795122
  eigenvalues    EBANDS =       481.63987104
  atomic energy  EATOM  =      4687.48422623
  Solvation  Ediel_sol  =         0.00000000
  ---------------------------------------------------
  free energy    TOTEN  =      -175.72384643 eV

  energy without entropy =     -175.60589520  energy(sigma->0) =     -175.66487081


--------------------------------------------------------------------------------------------------------




--------------------------------------- Iteration      1(  24)  ---------------------------------------


    POTLOK:  cpu time    0.0300: real time    0.0301
    SETDIJ:  cpu time    0.0169: real time    0.0169
     EDDAV:  cpu time    2.2967: real time    2.3006
       DOS:  cpu time    0.0015: real time    0.0015
    CHARGE:  cpu time    0.0539: real time    0.0540
    MIXING:  cpu time    0.0033: real time    0.0033
    --------------------------------------------
      LOOP:  cpu time    2.4024: real time    2.4063

 eigenvalue-minimisations  :  1992
 total energy-change (2. order) : 0.2049540E-03  (-0.1168087E-03)
 number of electron     109.0000001 magnetization 
 augmentation part       43.4016537 magnetization 

 Broyden mixing:
  rms(total) = 0.47652E-02    rms(broyden)= 0.47617E-02
  rms(prec ) = 0.62430E-02
  weight for this iteration     100.00

 eigenvalues of (default mixing * dielectric matrix)
  average eigenvalue GAMMA=   0.7411
  2.6026  2.1851  2.1851  1.4484  0.9586  0.7361  0.7361  0.7317  0.6714  0.2332
  0.1422  0.1422  0.2127  0.2127  0.1585  0.1699  0.1792  0.1792  0.1954

 Free energy of the ion-electron system (eV)
  ---------------------------------------------------
  alpha Z        PSCENC =       552.45260073
  Ewald energy   TEWEN  =     -5268.51278408
  -Hartree energ DENC   =      -662.52468924
  -exchange      EXHF   =         0.00000000
  -V(xc)+E(xc)   XCENC  =      -768.94255918
  PAW double counting   =      7729.41294938    -6926.77703470
  entropy T*S    EENTRO =        -0.11788785
  eigenvalues    EBANDS =       481.80153725
  atomic energy  EATOM  =      4687.48422623
  Solvation  Ediel_sol  =         0.00000000
  ---------------------------------------------------
  free energy    TOTEN  =      -175.72364147 eV

  energy without entropy =     -175.60575362  energy(sigma->0) =     -175.66469755


--------------------------------------------------------------------------------------------------------




--------------------------------------- Iteration      1(  25)  ---------------------------------------


    POTLOK:  cpu time    0.0295: real time    0.0295
    SETDIJ:  cpu time    0.0165: real time    0.0166
     EDDAV:  cpu time    2.0285: real time    2.0309
       DOS:  cpu time    0.0014: real time    0.0014
    CHARGE:  cpu time    0.0619: real time    0.0622
    MIXING:  cpu time    0.0044: real time    0.0045
    --------------------------------------------
      LOOP:  cpu time    2.1422: real time    2.1451

 eigenvalue-minimisations  :  1664
 total energy-change (2. order) : 0.1554766E-05  (-0.1922737E-04)
 number of electron     109.0000001 magnetization 
 augmentation part       43.3985535 magnetization 

 Broyden mixing:
  rms(total) = 0.35505E-02    rms(broyden)= 0.35499E-02
  rms(prec ) = 0.52070E-02
  weight for this iteration     100.00

 eigenvalues of (default mixing * dielectric matrix)
  average eigenvalue GAMMA=   0.7293
  2.6100  2.1946  2.1946  1.4917  1.0841  0.7331  0.7331  0.7508  0.7508  0.2350
  0.1422  0.1422  0.2170  0.2170  0.2111  0.1584  0.1701  0.1789  0.1789  0.1924

 Free energy of the ion-electron system (eV)
  ---------------------------------------------------
  alpha Z        PSCENC =       552.45260073
  Ewald energy   TEWEN  =     -5268.51278408
  -Hartree energ DENC   =      -662.54604894
  -exchange      EXHF   =         0.00000000
  -V(xc)+E(xc)   XCENC  =      -768.94268077
  PAW double counting   =      7729.58797915    -6926.96514005
  entropy T*S    EENTRO =        -0.11788382
  eigenvalues    EBANDS =       481.83609164
  atomic energy  EATOM  =      4687.48422623
  Solvation  Ediel_sol  =         0.00000000
  ---------------------------------------------------
  free energy    TOTEN  =      -175.72363992 eV

  energy without entropy =     -175.60575609  energy(sigma->0) =     -175.66469801


--------------------------------------------------------------------------------------------------------




--------------------------------------- Iteration      1(  26)  ---------------------------------------


    POTLOK:  cpu time    0.0320: real time    0.0320
    SETDIJ:  cpu time    0.0196: real time    0.0206
     EDDAV:  cpu time    1.6407: real time    1.6427
       DOS:  cpu time    0.0015: real time    0.0015
    CHARGE:  cpu time    0.0521: real time    0.0522
    MIXING:  cpu time    0.0039: real time    0.0039
    --------------------------------------------
      LOOP:  cpu time    1.7497: real time    1.7528

 eigenvalue-minimisations  :  1296
 total energy-change (2. order) : 0.1216400E-04  (-0.6731425E-05)
 number of electron     109.0000001 magnetization 
 augmentation part       43.3971648 magnetization 

 Broyden mixing:
  rms(total) = 0.15851E-02    rms(broyden)= 0.15846E-02
  rms(prec ) = 0.20062E-02
  weight for this iteration     100.00

 eigenvalues of (default mixing * dielectric matrix)
  average eigenvalue GAMMA=   0.7308
  2.5518  2.2050  2.2050  1.6051  1.0538  0.7723  0.7723  0.7211  0.7211  0.7075
  0.1422  0.1422  0.2317  0.1584  0.1698  0.1790  0.1790  0.2126  0.2126  0.2068
  0.1984

 Free energy of the ion-electron system (eV)
  ---------------------------------------------------
  alpha Z        PSCENC =       552.45260073
  Ewald energy   TEWEN  =     -5268.51278408
  -Hartree energ DENC   =      -662.55897453
  -exchange      EXHF   =         0.00000000
  -V(xc)+E(xc)   XCENC  =      -768.94326441
  PAW double counting   =      7729.65904095    -6927.04265584
  entropy T*S    EENTRO =        -0.11787342
  eigenvalues    EBANDS =       481.85605661
  atomic energy  EATOM  =      4687.48422623
  Solvation  Ediel_sol  =         0.00000000
  ---------------------------------------------------
  free energy    TOTEN  =      -175.72362775 eV

  energy without entropy =     -175.60575434  energy(sigma->0) =     -175.66469105


--------------------------------------------------------------------------------------------------------




--------------------------------------- Iteration      1(  27)  ---------------------------------------


    POTLOK:  cpu time    0.0296: real time    0.0297
    SETDIJ:  cpu time    0.0167: real time    0.0168
     EDDAV:  cpu time    1.0505: real time    1.0524
       DOS:  cpu time    0.0015: real time    0.0015
    --------------------------------------------
      LOOP:  cpu time    1.0984: real time    1.1004

 eigenvalue-minimisations  :   664
 total energy-change (2. order) : 0.7575882E-06  (-0.1377375E-05)
 number of electron     109.0000001 magnetization 
 augmentation part       43.3971648 magnetization 

 Free energy of the ion-electron system (eV)
  ---------------------------------------------------
  alpha Z        PSCENC =       552.45260073
  Ewald energy   TEWEN  =     -5268.51278408
  -Hartree energ DENC   =      -662.56430411
  -exchange      EXHF   =         0.00000000
  -V(xc)+E(xc)   XCENC  =      -768.94328643
  PAW double counting   =      7729.70428997    -6927.08812820
  entropy T*S    EENTRO =        -0.11786767
  eigenvalues    EBANDS =       481.86162656
  atomic energy  EATOM  =      4687.48422623
  Solvation  Ediel_sol  =         0.00000000
  ---------------------------------------------------
  free energy    TOTEN  =      -175.72362700 eV

  energy without entropy =     -175.60575932  energy(sigma->0) =     -175.66469316


--------------------------------------------------------------------------------------------------------




 average (electrostatic) potential at core
  the test charge radii are     1.2064  1.0103
  (the norm of the test charge is              1.0000)
       1 -39.1386       2 -39.3471       3 -38.8625       4 -39.0910       5 -38.9923
       6 -39.2367       7 -39.1595       8 -39.1472       9 -39.3177      10 -39.0048
      11 -39.1667      12 -39.1630      13 -39.3467      14 -39.1649      15 -39.3128
      16 -39.1897      17 -39.1740      18 -43.0517      19 -42.9301      20 -42.9478
 
 
 
 E-fermi :   6.3714     XC(G=0): -12.6141     alpha+bet :-15.2488


 k-point     1 :       0.0000    0.0000    0.0000
  band No.  band energies     occupation 
      1      -0.5455      2.00000
[...]
     31       5.1102      2.00000
     32       5.1220      2.00000
     33       5.2827      2.00000
     34       5.3358      2.00000
     35       5.3763      2.00000
     36       5.4122      2.00000
     37       5.5297      2.00000
     38       5.5753      2.00000
     39       5.6219      2.00000
     40       5.7051      2.00000
     41       5.7507      2.00000
     42       5.8270      2.00000
     43       5.8873      2.00000
     44       5.9405      2.00000
     45       5.9872      2.00000
     46       6.0154      2.00000
     47       6.0516      2.00000
     48       6.1235      2.00000
     49       6.1355      2.00000
     50       6.1587      2.00000
     51       6.2058      2.00000
     52       6.2328      1.99999
     53       6.3206      1.99909
     54       6.3608      1.99404
     55       6.4008      1.97104
     56       6.4586      1.82817
     57       6.4753      1.74167
     58       7.0260      0.00000
     59       7.1397      0.00000
     60       7.2097      0.00000
     61       7.3220      0.00000
     62       7.3717      0.00000
     63       7.4444      0.00000
     64       7.5282      0.00000
     65       7.5569      0.00000
     66       7.6868      0.00000
     67       7.7180      0.00000
     68       7.7724      0.00000

 k-point     7 :       0.0000    0.5000    0.3333
  band No.  band energies     occupation 
      1       0.9680      2.00000
      2       1.2462      2.00000
      3       2.8608      2.00000
      4       3.0266      2.00000
      5       3.1260      2.00000
      6       3.1898      2.00000
      7       3.2803      2.00000
      8       3.2989      2.00000
      9       3.4112      2.00000
     10       3.4883      2.00000
     11       3.5130      2.00000
     12       3.5222      2.00000
     13       3.7568      2.00000
     14       3.8143      2.00000
     15       3.9204      2.00000
     16       3.9503      2.00000
     17       3.9605      2.00000
     18       3.9940      2.00000
     19       4.1447      2.00000
     20       4.1537      2.00000
     21       4.2766      2.00000
     22       4.3987      2.00000
     23       4.6230      2.00000
     24       4.6724      2.00000
     25       4.7156      2.00000
     26       4.7737      2.00000
     27       4.8506      2.00000
     28       4.8819      2.00000
     29       4.8902      2.00000
     30       5.0204      2.00000
     31       5.0485      2.00000
     32       5.1953      2.00000
     33       5.2192      2.00000
     34       5.3449      2.00000
     35       5.3781      2.00000
     36       5.4333      2.00000
     37       5.4871      2.00000
     38       5.5672      2.00000
     39       5.6115      2.00000
     40       5.6712      2.00000
     41       5.7674      2.00000
     42       5.8288      2.00000
     43       5.9043      2.00000
     44       5.9483      2.00000
     45       6.0030      2.00000
     46       6.0304      2.00000
     47       6.0338      2.00000
     48       6.0730      2.00000
     49       6.1072      2.00000
     50       6.1263      2.00000
     51       6.1871      2.00000
     52       6.2217      2.00000
     53       6.2668      1.99995
     54       6.3740      1.98963
     55       6.4844      1.68353
     56       6.5701      0.83375
     57       6.6913      0.05432
     58       6.7280      0.01457
     59       7.1975      0.00000
     60       7.2528      0.00000
     61       7.3097      0.00000
     62       7.4424      0.00000
     63       7.5101      0.00000
     64       7.5239      0.00000
     65       7.5527      0.00000
     66       7.6360      0.00000
     67       7.6854      0.00000
     68       7.7937      0.00000

 k-point     8 :       0.5000    0.5000    0.3333
  band No.  band energies     occupation 
      1       1.5880      2.00000
      2       1.8932      2.00000
      3       1.9828      2.00000
      4       2.2748      2.00000
      5       2.9530      2.00000
      6       2.9857      2.00000
      7       3.3080      2.00000
      8       3.3964      2.00000
      9       3.5054      2.00000
     10       3.6095      2.00000
     11       3.6426      2.00000
     12       3.6703      2.00000
     13       3.7021      2.00000
     14       3.7965      2.00000
     15       3.8098      2.00000
     16       3.8336      2.00000
     17       3.8758      2.00000
     18       3.9569      2.00000
     19       4.0336      2.00000
     20       4.0724      2.00000
     21       4.0875      2.00000
     22       4.1157      2.00000
     23       4.6942      2.00000
     24       4.7658      2.00000
     25       4.8072      2.00000
     26       4.8470      2.00000
     27       4.9359      2.00000
     28       4.9962      2.00000
     29       5.1253      2.00000
     30       5.2120      2.00000
     31       5.2522      2.00000
     32       5.3006      2.00000
     33       5.3569      2.00000
     34       5.3711      2.00000
     35       5.3870      2.00000
     36       5.4287      2.00000
     37       5.4811      2.00000
     38       5.5380      2.00000
     39       5.5805      2.00000
     40       5.6208      2.00000
     41       5.7837      2.00000
     42       5.7885      2.00000
     43       5.8672      2.00000
     44       5.8837      2.00000
     45       5.9282      2.00000
     46       5.9765      2.00000
     47       6.0219      2.00000
     48       6.0770      2.00000
     49       6.1795      2.00000
     50       6.2508      1.99998
     51       6.3754      1.98901
     52       6.4039      1.96771
     53       6.4694      1.77552
     54       6.5150      1.43085
     55       6.5894      0.62877
     56       6.6889      0.05866
     57       6.7458      0.00704
     58       6.7597      0.00384
     59       6.9104      0.00000
     60       6.9859      0.00000
     61       7.1309      0.00000
     62       7.1653      0.00000
     63       7.3436      0.00000
     64       7.3776      0.00000
     65       7.5102      0.00000
     66       7.5275      0.00000
     67       7.5979      0.00000
     68       7.6654      0.00000


--------------------------------------------------------------------------------------------------------


 soft charge-density along one line, spin component           1
         0         1         2         3         4         5         6         7         8         9
 total charge-density along one line
 
 pseudopotential strength for first ion, spin component:           1
 -1.097   0.000  -0.010  -0.000  -0.003  -1.620   0.000  -0.010
  0.000  -1.086  -0.000   0.005   0.000   0.000  -1.610  -0.000
 -0.010  -0.000  -1.079   0.000   0.006  -0.010  -0.000  -1.603
 -0.000   0.005   0.000  -1.075   0.000  -0.000   0.005   0.000
 -0.003   0.000   0.006   0.000  -1.094  -0.003   0.000   0.006
 -1.620   0.000  -0.010  -0.000  -0.003  -2.093   0.000  -0.010
  0.000  -1.610  -0.000   0.005   0.000   0.000  -2.084  -0.000
 -0.010  -0.000  -1.603   0.000   0.006  -0.010  -0.000  -2.077
 -0.000   0.005   0.000  -1.599   0.000  -0.000   0.004   0.000
 -0.003   0.000   0.006   0.000  -1.617  -0.003   0.000   0.006
 -0.003   0.000  -0.003  -0.000   0.001  -0.003   0.000  -0.003
  0.007  -0.000   0.007   0.000  -0.002   0.006  -0.000   0.007
  0.003   0.000   0.003   0.000   0.004   0.002   0.000   0.003
  0.000  -0.003   0.000   0.002  -0.000   0.000  -0.003   0.000
 -0.006   0.000  -0.001   0.000   0.000  -0.005   0.000  -0.000
 -0.003  -0.000  -0.004  -0.000  -0.005  -0.003  -0.000  -0.004
 -0.000   0.005  -0.000  -0.003   0.000  -0.000   0.005  -0.000
  0.007  -0.000   0.001  -0.000  -0.002   0.006  -0.000   0.001
 total augmentation occupancy for first ion, spin component:           1
  0.464   0.000  -0.016  -0.000  -0.056  -0.788  -0.001   0.037   0.001   0.111   0.040   0.002   0.046   0.000  -0.050   0.002
  0.000   0.422  -0.000  -0.070   0.000  -0.001  -0.670   0.000   0.121  -0.000   0.000   0.000   0.000  -0.000   0.000   0.000
 -0.016  -0.000   0.465   0.000   0.089   0.036   0.000  -0.789   0.000  -0.183   0.026   0.001   0.036  -0.000  -0.016   0.001
 -0.000  -0.070   0.000   0.569   0.000   0.001   0.119   0.000  -1.021  -0.000  -0.000  -0.000   0.000   0.007  -0.000   0.000
 -0.056   0.000   0.089   0.000   0.546   0.112  -0.000  -0.186  -0.000  -0.913   0.019   0.001   0.005  -0.000  -0.002   0.000
 -0.788  -0.001   0.036   0.001   0.112   1.915   0.001  -0.023  -0.001  -0.105  -0.028  -0.003  -0.036  -0.000   0.046  -0.002
 -0.001  -0.670   0.000   0.119  -0.000   0.001   1.761   0.000  -0.102   0.000  -0.001  -0.000  -0.001  -0.014  -0.000  -0.000
  0.037   0.000  -0.789   0.000  -0.186  -0.023   0.000   1.898  -0.000   0.218  -0.018  -0.002  -0.030   0.001   0.015  -0.002
  0.001   0.121   0.000  -1.021  -0.000  -0.001  -0.102  -0.000   2.142   0.000   0.001   0.000  -0.000   0.004   0.000  -0.000
  0.111  -0.000  -0.183  -0.000  -0.913  -0.105   0.000   0.218   0.000   1.963  -0.013  -0.000   0.004   0.000   0.014  -0.000
  0.040   0.000   0.026  -0.000   0.019  -0.028  -0.001  -0.018   0.001  -0.013   2.065   0.047   0.003  -0.000   0.006   0.001
  0.002   0.000   0.001  -0.000   0.001  -0.003  -0.000  -0.002   0.000  -0.000   0.047   0.001   0.001  -0.000  -0.001   0.000
  0.046   0.000   0.036   0.000   0.005  -0.036  -0.001  -0.030  -0.000   0.004   0.003   0.001   0.396  -0.000  -0.003   0.011
  0.000  -0.000  -0.000   0.007  -0.000  -0.000  -0.014   0.001   0.004   0.000  -0.000  -0.000  -0.000   0.388   0.000   0.000
 -0.050   0.000  -0.016  -0.000  -0.002   0.046  -0.000   0.015   0.000   0.014   0.006  -0.001  -0.003   0.000   0.413  -0.000
  0.002   0.000   0.001   0.000   0.000  -0.002  -0.000  -0.002  -0.000  -0.000   0.001   0.000   0.011   0.000  -0.000   0.000
 -0.000  -0.000   0.000   0.000   0.000  -0.000  -0.001  -0.000  -0.000   0.000  -0.000  -0.000   0.000   0.010   0.000   0.000
 -0.002  -0.000  -0.001   0.000  -0.000   0.003  -0.000   0.000  -0.000   0.002  -0.000  -0.000  -0.000   0.000   0.011  -0.000


------------------------ aborting loop because EDIFF is reached ----------------------------------------


    CHARGE:  cpu time    0.0488: real time    0.0488
    FORLOC:  cpu time    0.0083: real time    0.0083
    FORNL :  cpu time    1.1145: real time    1.1155
    STRESS:  cpu time    1.1760: real time    1.1771
    FORCOR:  cpu time    0.0337: real time    0.0338
    FORHAR:  cpu time    0.0125: real time    0.0126
    MIXING:  cpu time    0.0014: real time    0.0014
    OFIELD:  cpu time    0.0001: real time    0.0001

  FORCE on cell =-STRESS in cart. coord.  units (eV):
  Direction    XX          YY          ZZ          XY          YZ          ZX
  --------------------------------------------------------------------------------------
  Alpha Z   567.87189   567.87189   567.87189
  Ewald   -1774.35595 -1840.83052 -1745.48723   -21.22518     0.62886     0.15886
  Hartree   217.72344   147.51850   250.37998    -4.25178     0.13684     0.01722
  E(xc)    -497.89898  -498.59850  -497.72587     1.02890    -0.01395    -0.00472
  Local     278.78582   417.93845   218.33712    23.92453    -0.71246    -0.15952
  n-local   -86.59510   -91.15839   -87.96882     0.66121     0.00196     0.00492
  augment   447.74867   449.47599   447.55791    -1.03716    -0.00338    -0.00355
  Kinetic   846.70350   847.76952   847.00765     0.91287    -0.03569    -0.01197
  Fock        0.00000     0.00000     0.00000     0.00000     0.00000     0.00000
  -------------------------------------------------------------------------------------
  Total      -0.01671    -0.01307    -0.02737     0.01339     0.00217     0.00123
  in kB      -0.10624    -0.08308    -0.17401     0.08509     0.01380     0.00779
  external pressure =       -0.12 kB  Pullay stress =        0.00 kB


 VOLUME and BASIS-vectors are now :
 -----------------------------------------------------------------------------
  energy-cutoff  :      267.88
  volume of cell :      252.04
      direct lattice vectors                 reciprocal lattice vectors
     6.373882486  0.029080088 -0.000447830     0.156755052  0.029632683  0.000006633
    -1.804056785  9.543347822  0.001663639    -0.000477653  0.104694725  0.000068563
     0.000337035 -0.002709599  4.139863193     0.000017149 -0.000038867  0.241553849

  length of vectors
     6.373948839  9.712368985  4.139864094     0.159531321  0.104695837  0.241553853


 FORCES acting on ions
    electron-ion (+dipol)            ewald-force                    non-local-force                 convergence-correction
 -----------------------------------------------------------------------------------------------
   -.151E+02 0.417E+02 0.394E-01   0.154E+02 -.418E+02 -.507E-01   -.320E+00 0.562E-01 0.135E-01   0.766E-02 -.294E-01 -.605E-02
   0.335E+02 0.562E+02 0.285E+00   -.337E+02 -.563E+02 -.293E+00   0.255E+00 0.147E+00 0.163E-02   -.118E-02 -.223E-01 -.178E-02
   -.173E+02 -.200E+02 -.651E-01   0.181E+02 0.199E+02 0.769E-01   -.750E+00 0.822E-01 -.885E-02   -.102E-02 0.330E-01 0.157E-02
   -.296E+01 0.301E+02 0.223E-01   0.275E+01 -.305E+02 -.275E-01   0.218E+00 0.490E+00 0.559E-02   -.711E-02 -.351E-01 -.853E-04
   0.209E+02 -.206E+02 -.112E-01   -.216E+02 0.209E+02 0.178E-01   0.731E+00 -.280E+00 -.660E-02   -.237E-02 0.237E-02 -.126E-02
   -.611E+01 -.255E+02 0.140E+00   0.617E+01 0.257E+02 -.137E+00   -.630E-01 -.114E+00 -.418E-02   0.835E-02 -.257E-01 -.354E-03
   0.168E+02 -.104E+02 -.112E-01   -.171E+02 0.104E+02 0.738E-02   0.299E+00 0.290E-02 0.400E-02   0.656E-02 -.355E-01 -.349E-02
   -.233E+02 -.134E+02 -.327E-01   0.236E+02 0.133E+02 0.337E-01   -.309E+00 0.767E-01 0.334E-02   -.825E-02 -.131E-01 -.931E-03
   -.149E+02 0.734E+02 0.241E+00   0.151E+02 -.736E+02 -.251E+00   -.177E+00 0.231E+00 0.620E-02   -.834E-02 -.261E-01 -.225E-02
   0.275E+02 -.298E+02 -.865E-01   -.277E+02 0.302E+02 0.979E-01   0.237E+00 -.494E+00 -.593E-02   0.470E-03 0.385E-01 0.330E-02
   0.476E+01 0.236E+02 -.383E-01   -.463E+01 -.237E+02 0.369E-01   -.137E+00 0.997E-01 0.480E-02   0.564E-02 -.312E-01 -.298E-02
   -.244E+01 -.219E+02 -.495E-01   0.234E+01 0.220E+02 0.607E-01   0.904E-01 -.115E+00 -.149E-01   -.804E-04 0.438E-01 0.471E-02
   -.310E+02 -.333E+02 -.178E+00   0.311E+02 0.331E+02 0.178E+00   -.983E-01 0.238E+00 -.722E-03   -.652E-02 0.177E-01 0.324E-02
   0.833E+00 0.316E+02 0.136E+00   -.211E+00 -.318E+02 -.152E+00   -.634E+00 0.223E+00 0.891E-02   0.125E-01 -.138E-01 -.173E-02
   -.901E+01 -.113E+02 -.221E-01   0.834E+01 0.115E+02 0.300E-01   0.659E+00 -.223E+00 -.938E-02   0.606E-02 0.972E-02 0.711E-04
   0.195E+02 -.609E+02 -.151E+00   -.195E+02 0.610E+02 0.152E+00   0.248E-01 -.742E-01 -.558E-02   -.111E-01 0.281E-01 0.457E-02
   -.152E+01 -.973E+01 0.507E-01   0.150E+01 0.101E+02 -.444E-01   0.182E-01 -.378E+00 -.672E-02   0.233E-02 0.489E-01 0.245E-02
   -.629E+01 -.315E+02 -.174E+00   0.640E+01 0.318E+02 0.187E+00   -.120E+00 -.278E+00 -.108E-01   0.121E-01 0.387E-01 0.112E-02
   0.428E+02 -.108E+01 -.936E-01   -.442E+02 0.126E+01 0.921E-01   0.140E+01 -.176E+00 -.466E-02   -.793E-02 -.123E-01 0.307E-02
   -.366E+02 0.328E+02 0.764E-02   0.379E+02 -.334E+02 -.148E-01   -.131E+01 0.570E+00 0.888E-02   -.817E-02 -.727E-02 0.448E-03
 -----------------------------------------------------------------------------------------------
   -.133E-01 -.983E-01 0.833E-02   0.000E+00 0.000E+00 -.764E-14   0.101E-01 0.848E-01 -.215E-01   -.324E-03 0.910E-02 0.363E-02
 
 
 POSITION                                       TOTAL-FORCE (eV/Angst)
 -----------------------------------------------------------------------------------
      2.62028      4.61137      0.31605         0.001350     -0.005290     -0.003385
      5.05050      5.57437      0.31599         0.002185      0.004025     -0.008070
      5.94863      0.74559      0.30780        -0.002187     -0.001758      0.004983
      0.26721      3.61688      0.31380         0.002383      0.004639      0.000722
      1.90466      1.70538      0.31007        -0.001695      0.001135     -0.000770
      4.27492      2.67313      0.31243         0.001381      0.001278     -0.001090
      2.28774      3.13012      2.38344         0.002548      0.002468     -0.002863
     -0.13122      2.17846      2.38081         0.003682     -0.003421      0.003938
      0.61931      5.08028      2.38605         0.006260     -0.002219     -0.005674
      1.61160      0.28550      2.37776        -0.002876     -0.000731      0.009211
      4.63607      4.13911      2.38430         0.005051     -0.001812      0.000847
      3.77334      8.86792      2.37956        -0.004467      0.001459      0.001523
      1.35648      7.87435      2.38095        -0.004833      0.002510      0.002594
      3.04160      6.02155      2.38609         0.000511      0.000440     -0.008586
      3.34542      7.44195      0.31234        -0.001571      0.005083     -0.000971
     -0.59074      8.35701      0.31029        -0.004451     -0.003880      0.000647
      1.77319      9.36476      0.31017        -0.005168     -0.002385      0.002525
      3.92054      1.21547      2.37881         0.003927      0.000649      0.004326
     -0.97398      6.96983      2.38280         0.001118     -0.003364     -0.002532
      1.00926      6.49893      0.31355        -0.003149      0.001173      0.002626
 -----------------------------------------------------------------------------------
    total drift:                               -0.003501     -0.004401     -0.009514


--------------------------------------------------------------------------------------------------------



  FREE ENERGIE OF THE ION-ELECTRON SYSTEM (eV)
  ---------------------------------------------------
  free  energy   TOTEN  =      -179.06722506 eV

  energy  without entropy=     -178.96481319  energy(sigma->0) =     -179.01601913
 
 d Force = 0.7949815E-04[ 0.509E-04, 0.108E-03]  d Energy = 0.8499411E-04-0.550E-05
 d Force = 0.3947782E-01[ 0.391E-01, 0.399E-01]  d Ewald  = 0.3630916E+00-0.324E+00


--------------------------------------------------------------------------------------------------------


    POTLOK:  cpu time    0.0444: real time    0.0444


--------------------------------------------------------------------------------------------------------


 Conjugate gradient step on ions:
 trial-energy change:   -0.000085  1 .order   -0.000090   -0.000127   -0.000053
  (g-gl).g = 0.150E-03      g.g   = 0.138E-03  gl.gl    = 0.302E-03
 g(Force)  = 0.719E-04   g(Stress)= 0.658E-04 ortho     =-0.210E-05
 gamma     =   0.49728
 trial     =   0.92680
 opt step  =   1.59933  (harmonic =   1.59933) maximal distance =0.00185823
 next E    =  -179.067249   (d E  =  -0.00011)


--------------------------------------------------------------------------------------------------------


  
 reached required accuracy - stopping structural energy minimisation
     LOOP+:  cpu time   11.9525: real time   11.9689
    4ORBIT:  cpu time    0.0000: real time    0.0000

 total amount of memory used by VASP MPI-rank0    48221. kBytes
=======================================================================

   base      :      30000. kBytes
   nonl-proj :       6801. kBytes
   fftplans  :       1515. kBytes
   grid      :       3171. kBytes
   one-center:        311. kBytes
   wavefun   :       6423. kBytes
 
  
  
 General timing and accounting informations for this job:
 ========================================================
  
                  Total CPU time used (sec):      905.665
                            User time (sec):      899.224
                          System time (sec):        6.441
                         Elapsed time (sec):      907.260
  
                   Maximum memory used (kb):      197916.
                   Average memory used (kb):           0.
  
                          Minor page faults:       877765
                          Major page faults:            0
                 Voluntary context switches:          730
