 running on    4 total cores
 distrk:  each k-point on    4 cores,    1 groups
 distr:  one band on    1 cores,    4 groups
 using from now: INCAR     
 vasp.5.4.4.18Apr17-6-g9f103f2a35 (build Jul 11 2019 11:52:51) complex          
  
 POSCAR found type information on POSCAR  V  Fe
 POSCAR found :  2 types and      20 ions
 scaLAPACK will be used

 ----------------------------------------------------------------------------- 
|                                                                             |
|  ADVICE TO THIS USER RUNNING 'VASP/VAMP'   (HEAR YOUR MASTER'S VOICE ...):  |
|                                                                             |
|      You have a (more or less) 'large supercell' and for larger cells       |
|      it might be more efficient to use real space projection opertators     |
|      So try LREAL= Auto  in the INCAR   file.                               |
|      Mind:          For very  accurate calculation you might also keep the  |
|      reciprocal projection scheme          (i.e. LREAL=.FALSE.)             |
|                                                                             |
 ----------------------------------------------------------------------------- 

 LDA part: xc-table for Pade appr. of Perdew
 POSCAR, INCAR and KPOINTS ok, starting setup
 FFT: planning ...
 WAVECAR not read
 entering main loop
       N       E                     dE             d eps       ncg     rms          rms(c)
DAV:   1     0.633156854522E+03    0.63316E+03   -0.22619E+04  1088   0.110E+03
DAV:   2    -0.718204928271E+02   -0.70498E+03   -0.68099E+03  1088   0.340E+02
DAV:   3    -0.190834397734E+03   -0.11901E+03   -0.11201E+03  1824   0.147E+02
DAV:   4    -0.202763778630E+03   -0.11929E+02   -0.11414E+02  1776   0.615E+01
DAV:   5    -0.203354393396E+03   -0.59061E+00   -0.57515E+00  1752   0.113E+01    0.564E+01
DAV:   6    -0.228893465975E+03   -0.25539E+02   -0.49220E+02  2112   0.182E+02    0.782E+01
DAV:   7    -0.182080593736E+03    0.46813E+02   -0.44116E+02  2100   0.139E+02    0.259E+01
DAV:   8    -0.190864567941E+03   -0.87840E+01   -0.22499E+02  2128   0.107E+02    0.409E+01
DAV:   9    -0.178142147833E+03    0.12722E+02   -0.11920E+02  2168   0.735E+01    0.208E+01
DAV:  10    -0.176510636534E+03    0.16315E+01   -0.23827E+01  2176   0.326E+01    0.110E+01
DAV:  11    -0.176274135255E+03    0.23650E+00   -0.21842E+00  1960   0.119E+01    0.913E+00
DAV:  12    -0.176308434730E+03   -0.34299E-01   -0.15118E+00  2120   0.107E+01    0.936E+00
DAV:  13    -0.176005634271E+03    0.30280E+00   -0.28975E+00  2096   0.139E+01    0.741E+00
DAV:  14    -0.176003809282E+03    0.18250E-02   -0.27930E+00  2120   0.144E+01    0.661E+00
DAV:  15    -0.175797638297E+03    0.20617E+00   -0.11525E+00  2120   0.973E+00    0.358E+00
DAV:  16    -0.175757007158E+03    0.40631E-01   -0.28821E-01  2088   0.405E+00    0.251E+00
DAV:  17    -0.175750565863E+03    0.64413E-02   -0.89134E-02  2080   0.226E+00    0.194E+00
DAV:  18    -0.175736187698E+03    0.14378E-01   -0.52039E-02  2064   0.215E+00    0.135E+00
DAV:  19    -0.175731805492E+03    0.43822E-02   -0.53375E-02  1864   0.164E+00    0.101E+00
DAV:  20    -0.175725213295E+03    0.65922E-02   -0.36010E-02  1952   0.151E+00    0.526E-01
DAV:  21    -0.175724704740E+03    0.50856E-03   -0.55470E-03  1768   0.574E-01    0.435E-01
DAV:  22    -0.175723816845E+03    0.88790E-03   -0.29238E-03  1624   0.419E-01    0.208E-01
DAV:  23    -0.175723846425E+03   -0.29581E-04   -0.19359E-03  1728   0.311E-01    0.172E-01
DAV:  24    -0.175723641472E+03    0.20495E-03   -0.11681E-03  1992   0.252E-01    0.477E-02
DAV:  25    -0.175723639917E+03    0.15548E-05   -0.19227E-04  1664   0.102E-01    0.355E-02
DAV:  26    -0.175723627753E+03    0.12164E-04   -0.67314E-05  1296   0.698E-02    0.159E-02
DAV:  27    -0.175723626995E+03    0.75759E-06   -0.13774E-05   664   0.334E-02
   1 F= -.17572363E+03 E0= -.17566469E+03  d E =-.175724E+03
 curvature:   0.00 expect dE= 0.000E+00 dE for cont linesearch  0.000E+00
 trial: gam= 0.00000 g(F)=  0.307E+01 g(S)=  0.586E-01 ort = 0.000E+00 (trialstep = 0.100E+01)
 search vector abs. value=  0.313E+01
 bond charge predicted
       N       E                     dE             d eps       ncg     rms          rms(c)
DAV:   1    -0.177793287710E+03   -0.20697E+01   -0.21977E+02  1088   0.521E+01    0.777E+00
DAV:   2    -0.188613843003E+03   -0.10821E+02   -0.91752E+01  2112   0.757E+01    0.322E+01
DAV:   3    -0.177780899001E+03    0.10833E+02   -0.66764E+01  2160   0.663E+01    0.729E+00
DAV:   4    -0.177792993941E+03   -0.12095E-01   -0.70006E+00  1792   0.182E+01    0.358E+00
DAV:   5    -0.177776806187E+03    0.16188E-01   -0.10924E+00  1984   0.846E+00    0.343E+00
DAV:   6    -0.177741107707E+03    0.35698E-01   -0.44709E-01  2064   0.650E+00    0.284E+00
DAV:   7    -0.177797923344E+03   -0.56816E-01   -0.71431E-01  2064   0.813E+00    0.389E+00
DAV:   8    -0.177704793237E+03    0.93130E-01   -0.83092E-01  2064   0.679E+00    0.162E+00
DAV:   9    -0.177695667761E+03    0.91255E-02   -0.19643E-01  1920   0.323E+00    0.124E+00
DAV:  10    -0.177684636091E+03    0.11032E-01   -0.66392E-02  2088   0.226E+00    0.693E-01
DAV:  11    -0.177681980849E+03    0.26552E-02   -0.19387E-02  2048   0.138E+00    0.392E-01
DAV:  12    -0.177682603233E+03   -0.62238E-03   -0.15513E-02  2080   0.108E+00    0.432E-01
DAV:  13    -0.177681028859E+03    0.15744E-02   -0.11548E-02  2072   0.898E-01    0.147E-01
DAV:  14    -0.177681254333E+03   -0.22547E-03   -0.29523E-03  2112   0.477E-01    0.209E-01
DAV:  15    -0.177680968384E+03    0.28595E-03   -0.16788E-03  2112   0.351E-01    0.697E-02
DAV:  16    -0.177680949657E+03    0.18727E-04   -0.26797E-04  1728   0.114E-01    0.570E-02
DAV:  17    -0.177680918540E+03    0.31117E-04   -0.25127E-04  1744   0.108E-01    0.198E-02
DAV:  18    -0.177680918901E+03   -0.36119E-06   -0.35968E-05   952   0.544E-02
   2 F= -.17768092E+03 E0= -.17762704E+03  d E =-.195729E+01
 trial-energy change:   -1.957292  1 .order   -2.007947   -3.130606   -0.885288
 step:   1.4943(harm=  1.3943)  dis= 0.20038  next Energy=  -177.893581 (dE=-0.217E+01)
 bond charge predicted
       N       E                     dE             d eps       ncg     rms          rms(c)
DAV:   1    -0.177885800748E+03   -0.20488E+00   -0.51824E+01  1088   0.244E+01    0.316E+00
DAV:   2    -0.179612763840E+03   -0.17270E+01   -0.14372E+01  2096   0.307E+01    0.129E+01
DAV:   3    -0.177922721387E+03    0.16900E+01   -0.88055E+00  2152   0.255E+01    0.264E+00
DAV:   4    -0.177910175261E+03    0.12546E-01   -0.76145E-01  1824   0.699E+00    0.139E+00
DAV:   5    -0.177909729117E+03    0.44614E-03   -0.23744E-01  2080   0.410E+00    0.169E+00
DAV:   6    -0.177896379981E+03    0.13349E-01   -0.20374E-01  2080   0.418E+00    0.124E+00
DAV:   7    -0.177905414602E+03   -0.90346E-02   -0.16691E-01  2064   0.405E+00    0.155E+00
DAV:   8    -0.177884265963E+03    0.21149E-01   -0.12990E-01  2056   0.283E+00    0.302E-01
DAV:   9    -0.177884425327E+03   -0.15936E-03   -0.12487E-02  2136   0.908E-01    0.281E-01
DAV:  10    -0.177883917965E+03    0.50736E-03   -0.48472E-03  2176   0.604E-01    0.139E-01
DAV:  11    -0.177883793982E+03    0.12398E-03   -0.21544E-03  1936   0.323E-01    0.731E-02
DAV:  12    -0.177883768549E+03    0.25433E-04   -0.41152E-04  2056   0.180E-01    0.508E-02
DAV:  13    -0.177883750710E+03    0.17839E-04   -0.13607E-04  1920   0.109E-01    0.250E-02
DAV:  14    -0.177883751290E+03   -0.58045E-06   -0.36849E-05   968   0.776E-02
   3 F= -.17788375E+03 E0= -.17783342E+03  d E =-.216012E+01
 curvature:  -0.65 expect dE=-0.406E+00 dE for cont linesearch -0.423E-03
 trial: gam= 0.21310 g(F)=  0.562E+00 g(S)=  0.604E-01 ort =-0.450E-01 (trialstep = 0.110E+01)
 search vector abs. value=  0.745E+00
 bond charge predicted
       N       E                     dE             d eps       ncg     rms          rms(c)
DAV:   1    -0.178673955984E+03   -0.79021E+00   -0.69645E+01  1088   0.346E+01    0.882E+00
DAV:   2    -0.191415676790E+03   -0.12742E+02   -0.70184E+01  2048   0.867E+01    0.421E+01
DAV:   3    -0.178283920028E+03    0.13132E+02   -0.43997E+01  2016   0.614E+01    0.588E+00
DAV:   4    -0.178516725018E+03   -0.23280E+00   -0.70374E+00  1920   0.175E+01    0.411E+00
DAV:   5    -0.178415167228E+03    0.10156E+00   -0.12230E+00  1904   0.964E+00    0.251E+00
DAV:   6    -0.178443515059E+03   -0.28348E-01   -0.79506E-01  2136   0.686E+00    0.332E+00
DAV:   7    -0.178386912715E+03    0.56602E-01   -0.47037E-01  2112   0.636E+00    0.184E+00
DAV:   8    -0.178371853665E+03    0.15059E-01   -0.15653E-01  2016   0.383E+00    0.120E+00
DAV:   9    -0.178367892592E+03    0.39611E-02   -0.34858E-02  2080   0.166E+00    0.809E-01
DAV:  10    -0.178364865368E+03    0.30272E-02   -0.21442E-02  2040   0.110E+00    0.542E-01
DAV:  11    -0.178364954545E+03   -0.89177E-04   -0.82824E-03  2112   0.864E-01    0.488E-01
DAV:  12    -0.178363691819E+03    0.12627E-02   -0.49955E-03  2032   0.747E-01    0.244E-01
DAV:  13    -0.178363651227E+03    0.40593E-04   -0.10271E-03  2008   0.271E-01    0.211E-01
DAV:  14    -0.178363533211E+03    0.11802E-03   -0.40616E-04  2144   0.157E-01    0.141E-01
DAV:  15    -0.178363490677E+03    0.42535E-04   -0.13560E-04  1680   0.866E-02    0.106E-01
DAV:  16    -0.178363431501E+03    0.59176E-04   -0.15964E-04  2016   0.963E-02    0.373E-02
DAV:  17    -0.178363427790E+03    0.37108E-05   -0.20465E-05   816   0.388E-02
   4 F= -.17836343E+03 E0= -.17831336E+03  d E =-.479676E+00
 trial-energy change:   -0.479676  1 .order   -0.471658   -0.673035   -0.270281
 step:   1.7201(harm=  1.8363)  dis= 0.08163  next Energy=  -178.441280 (dE=-0.558E+00)
 bond charge predicted
       N       E                     dE             d eps       ncg     rms          rms(c)
DAV:   1    -0.178533029921E+03   -0.16960E+00   -0.22672E+01  1088   0.204E+01    0.497E+00
DAV:   2    -0.182872708774E+03   -0.43397E+01   -0.23528E+01  2096   0.496E+01    0.259E+01
DAV:   3    -0.178399052584E+03    0.44737E+01   -0.17290E+01  2120   0.415E+01    0.232E+00
DAV:   4    -0.178480391993E+03   -0.81339E-01   -0.17748E+00  1816   0.905E+00    0.208E+00
DAV:   5    -0.178464553522E+03    0.15838E-01   -0.29836E-01  1864   0.570E+00    0.153E+00
DAV:   6    -0.178460779814E+03    0.37737E-02   -0.23139E-01  1952   0.432E+00    0.157E+00
DAV:   7    -0.178451132325E+03    0.96475E-02   -0.11545E-01  1968   0.336E+00    0.101E+00
DAV:   8    -0.178444331490E+03    0.68008E-02   -0.57222E-02  2104   0.216E+00    0.485E-01
DAV:   9    -0.178443970558E+03    0.36093E-03   -0.12344E-02  2048   0.982E-01    0.363E-01
DAV:  10    -0.178442912438E+03    0.10581E-02   -0.71790E-03  2088   0.681E-01    0.148E-01
DAV:  11    -0.178443328981E+03   -0.41654E-03   -0.30769E-03  2048   0.568E-01    0.266E-01
DAV:  12    -0.178442824193E+03    0.50479E-03   -0.20268E-03  2048   0.487E-01    0.641E-02
DAV:  13    -0.178442823704E+03    0.48885E-06   -0.29433E-04  1824   0.137E-01    0.558E-02
DAV:  14    -0.178442816424E+03    0.72794E-05   -0.37894E-05  1000   0.635E-02
   5 F= -.17844282E+03 E0= -.17839263E+03  d E =-.559065E+00
 curvature:  -1.09 expect dE=-0.765E+00 dE for cont linesearch -0.121E-05
 trial: gam= 1.01590 g(F)=  0.210E+00 g(S)=  0.493E+00 ort =-0.911E-03 (trialstep = 0.620E+00)
 search vector abs. value=  0.147E+01
 bond charge predicted
       N       E                     dE             d eps       ncg     rms          rms(c)
DAV:   1    -0.178958169007E+03   -0.51535E+00   -0.50285E+01  1240   0.360E+01    0.794E+00
DAV:   2    -0.189957490935E+03   -0.10999E+02   -0.67136E+01  2048   0.763E+01    0.392E+01
DAV:   3    -0.178475703042E+03    0.11482E+02   -0.42634E+01  2048   0.478E+01    0.326E+00
DAV:   4    -0.178849534804E+03   -0.37383E+00   -0.49098E+00  1888   0.131E+01    0.384E+00
DAV:   5    -0.178708873189E+03    0.14066E+00   -0.11798E+00  2024   0.992E+00    0.146E+00
DAV:   6    -0.178724140801E+03   -0.15268E-01   -0.42102E-01  2152   0.594E+00    0.195E+00
DAV:   7    -0.178695696642E+03    0.28444E-01   -0.18338E-01  2072   0.433E+00    0.120E+00
DAV:   8    -0.178688604415E+03    0.70922E-02   -0.81434E-02  2120   0.253E+00    0.747E-01
DAV:   9    -0.178688352893E+03    0.25152E-03   -0.29512E-02  2048   0.170E+00    0.708E-01
DAV:  10    -0.178684995397E+03    0.33575E-02   -0.15632E-02  2048   0.129E+00    0.228E-01
DAV:  11    -0.178685010671E+03   -0.15274E-04   -0.44504E-03  2032   0.555E-01    0.201E-01
DAV:  12    -0.178684612793E+03    0.39788E-03   -0.26036E-03  1872   0.408E-01    0.752E-02
DAV:  13    -0.178684634106E+03   -0.21313E-04   -0.56985E-04  1632   0.190E-01    0.560E-02
DAV:  14    -0.178684611184E+03    0.22922E-04   -0.27631E-04  1664   0.125E-01    0.224E-02
DAV:  15    -0.178684613523E+03   -0.23383E-05   -0.54201E-05  1152   0.612E-02
   6 F= -.17868461E+03 E0= -.17863189E+03  d E =-.241797E+00
 trial-energy change:   -0.241797  1 .order   -0.247300   -0.434919   -0.059680
 step:   0.7303(harm=  0.7189)  dis= 0.05576  next Energy=  -178.689877 (dE=-0.247E+00)
 bond charge predicted
       N       E                     dE             d eps       ncg     rms          rms(c)
DAV:   1    -0.178697940925E+03   -0.13330E-01   -0.15129E+00  1144   0.594E+00    0.145E+00
DAV:   2    -0.179099184420E+03   -0.40124E+00   -0.21546E+00  2144   0.142E+01    0.798E+00
DAV:   3    -0.178686800965E+03    0.41238E+00   -0.15898E+00  2136   0.117E+01    0.535E-01
DAV:   4    -0.178692957075E+03   -0.61561E-02   -0.95548E-02  1728   0.218E+00    0.524E-01
DAV:   5    -0.178690673631E+03    0.22834E-02   -0.23932E-02  1880   0.154E+00    0.330E-01
DAV:   6    -0.178690990079E+03   -0.31645E-03   -0.12716E-02  2048   0.112E+00    0.376E-01
DAV:   7    -0.178689989610E+03    0.10005E-02   -0.55240E-03  2080   0.762E-01    0.158E-01
DAV:   8    -0.178689815596E+03    0.17401E-03   -0.15452E-03  2120   0.331E-01    0.759E-02
DAV:   9    -0.178689847495E+03   -0.31899E-04   -0.61125E-04  2064   0.236E-01    0.104E-01
DAV:  10    -0.178689765229E+03    0.82267E-04   -0.42453E-04  2008   0.216E-01    0.270E-02
DAV:  11    -0.178689769854E+03   -0.46253E-05   -0.93404E-05  1552   0.921E-02
   7 F= -.17868977E+03 E0= -.17863665E+03  d E =-.246953E+00
 curvature:  -0.74 expect dE=-0.116E+00 dE for cont linesearch -0.207E-05
 trial: gam= 0.19473 g(F)=  0.138E+00 g(S)=  0.186E-01 ort =-0.202E-02 (trialstep = 0.642E+00)
 search vector abs. value=  0.211E+00
 bond charge predicted
       N       E                     dE             d eps       ncg     rms          rms(c)
DAV:   1    -0.178776424003E+03   -0.86659E-01   -0.57614E+00  1088   0.830E+00    0.946E-01
DAV:   2    -0.178910964616E+03   -0.13454E+00   -0.87169E-01  2176   0.825E+00    0.436E+00
DAV:   3    -0.178781701822E+03    0.12926E+00   -0.54267E-01  2176   0.708E+00    0.574E-01
DAV:   4    -0.178782019057E+03   -0.31724E-03   -0.45928E-02  1776   0.176E+00    0.440E-01
DAV:   5    -0.178779912886E+03    0.21062E-02   -0.20354E-02  1952   0.135E+00    0.359E-01
DAV:   6    -0.178779466251E+03    0.44664E-03   -0.18220E-02  2144   0.114E+00    0.309E-01
DAV:   7    -0.178778757476E+03    0.70877E-03   -0.61105E-03  2136   0.739E-01    0.196E-01
DAV:   8    -0.178778487847E+03    0.26963E-03   -0.16800E-03  2096   0.409E-01    0.807E-02
DAV:   9    -0.178778570993E+03   -0.83147E-04   -0.10430E-03  2136   0.282E-01    0.113E-01
DAV:  10    -0.178778452036E+03    0.11896E-03   -0.87645E-04  2088   0.266E-01    0.436E-02
DAV:  11    -0.178778451448E+03    0.58798E-06   -0.13468E-04  1736   0.130E-01    0.386E-02
DAV:  12    -0.178778438671E+03    0.12777E-04   -0.36152E-05  1040   0.791E-02    0.110E-02
DAV:  13    -0.178778438622E+03    0.48974E-07   -0.15629E-05   664   0.275E-02
   8 F= -.17877844E+03 E0= -.17872623E+03  d E =-.886688E-01
 ZBRENT: can't locate minimum, use default step
 trial-energy change:   -0.088669  1 .order   -0.088620   -0.100292   -0.076949
 step:   2.5691(harm=  2.7594)  dis= 0.10956  next Energy=  -178.905218 (dE=-0.215E+00)
 bond charge predicted
       N       E                     dE             d eps       ncg     rms          rms(c)
DAV:   1    -0.178880322678E+03   -0.10188E+00   -0.51661E+01  1088   0.245E+01    0.277E+00
DAV:   2    -0.179941292187E+03   -0.10610E+01   -0.71710E+00  2176   0.233E+01    0.120E+01
DAV:   3    -0.178925078060E+03    0.10162E+01   -0.44589E+00  2168   0.203E+01    0.168E+00
DAV:   4    -0.178930606733E+03   -0.55287E-02   -0.42662E-01  1792   0.536E+00    0.137E+00
DAV:   5    -0.178912843444E+03    0.17763E-01   -0.18848E-01  2024   0.421E+00    0.121E+00
DAV:   6    -0.178907696546E+03    0.51469E-02   -0.15512E-01  2040   0.374E+00    0.101E+00
DAV:   7    -0.178902270458E+03    0.54261E-02   -0.62745E-02  2024   0.239E+00    0.666E-01
DAV:   8    -0.178898608815E+03    0.36616E-02   -0.22583E-02  2048   0.131E+00    0.195E-01
DAV:   9    -0.178899117472E+03   -0.50866E-03   -0.77212E-03  1840   0.705E-01    0.245E-01
DAV:  10    -0.178898421673E+03    0.69580E-03   -0.60946E-03  1936   0.608E-01    0.103E-01
DAV:  11    -0.178898423517E+03   -0.18444E-05   -0.98860E-04  2128   0.270E-01    0.878E-02
DAV:  12    -0.178898357141E+03    0.66376E-04   -0.36611E-04  2080   0.169E-01    0.242E-02
DAV:  13    -0.178898359074E+03   -0.19328E-05   -0.45589E-05  1184   0.833E-02
   9 F= -.17889836E+03 E0= -.17884784E+03  d E =-.208589E+00
 curvature:  -1.85 expect dE=-0.165E+00 dE for cont linesearch -0.859E-04
 trial: gam= 0.56258 g(F)=  0.759E-01 g(S)=  0.132E-01 ort = 0.313E-02 (trialstep = 0.103E+01)
 search vector abs. value=  0.160E+00
 bond charge predicted
       N       E                     dE             d eps       ncg     rms          rms(c)
DAV:   1    -0.178982164110E+03   -0.83807E-01   -0.11155E+01  1088   0.136E+01    0.248E+00
DAV:   2    -0.180092858314E+03   -0.11107E+01   -0.63372E+00  2104   0.240E+01    0.131E+01
DAV:   3    -0.178963478408E+03    0.11294E+01   -0.44426E+00  2120   0.190E+01    0.111E+00
DAV:   4    -0.178980508223E+03   -0.17030E-01   -0.32942E-01  1760   0.387E+00    0.976E-01
DAV:   5    -0.178970480257E+03    0.10028E-01   -0.95074E-02  2000   0.257E+00    0.556E-01
DAV:   6    -0.178974181418E+03   -0.37012E-02   -0.55419E-02  2144   0.222E+00    0.883E-01
DAV:   7    -0.178967700436E+03    0.64810E-02   -0.33407E-02  2144   0.179E+00    0.307E-01
DAV:   8    -0.178967183706E+03    0.51673E-03   -0.60483E-03  2096   0.774E-01    0.170E-01
DAV:   9    -0.178966964827E+03    0.21888E-03   -0.18896E-03  2040   0.396E-01    0.885E-02
DAV:  10    -0.178966895142E+03    0.69685E-04   -0.74501E-04  2032   0.202E-01    0.404E-02
DAV:  11    -0.178966909992E+03   -0.14850E-04   -0.18919E-04  1920   0.143E-01    0.573E-02
DAV:  12    -0.178966884694E+03    0.25299E-04   -0.11228E-04  1776   0.114E-01    0.139E-02
DAV:  13    -0.178966887144E+03   -0.24498E-05   -0.24973E-05   848   0.514E-02
  10 F= -.17896689E+03 E0= -.17891660E+03  d E =-.685281E-01
 trial-energy change:   -0.068528  1 .order   -0.068453   -0.093394   -0.043513
 step:   1.9241(harm=  1.9241)  dis= 0.04174  next Energy=  -178.985792 (dE=-0.874E-01)
 bond charge predicted
       N       E                     dE             d eps       ncg     rms          rms(c)
DAV:   1    -0.178998621533E+03   -0.31737E-01   -0.84607E+00  1088   0.118E+01    0.216E+00
DAV:   2    -0.179851537393E+03   -0.85292E+00   -0.48025E+00  2096   0.208E+01    0.115E+01
DAV:   3    -0.178984143608E+03    0.86739E+00   -0.33934E+00  2120   0.166E+01    0.948E-01
DAV:   4    -0.178997133276E+03   -0.12990E-01   -0.24914E-01  1760   0.336E+00    0.855E-01
DAV:   5    -0.178988919169E+03    0.82141E-02   -0.71579E-02  1848   0.219E+00    0.441E-01
DAV:   6    -0.178991581077E+03   -0.26619E-02   -0.40613E-02  2144   0.179E+00    0.702E-01
DAV:   7    -0.178987145081E+03    0.44360E-02   -0.23813E-02  2144   0.147E+00    0.266E-01
DAV:   8    -0.178986813650E+03    0.33143E-03   -0.42890E-03  2080   0.676E-01    0.161E-01
DAV:   9    -0.178986621849E+03    0.19180E-03   -0.14773E-03  2096   0.366E-01    0.792E-02
DAV:  10    -0.178986565484E+03    0.56366E-04   -0.60200E-04  2088   0.180E-01    0.336E-02
DAV:  11    -0.178986577614E+03   -0.12130E-04   -0.14465E-04  1872   0.123E-01    0.497E-02
DAV:  12    -0.178986558276E+03    0.19339E-04   -0.76961E-05  1592   0.996E-02    0.120E-02
DAV:  13    -0.178986560338E+03   -0.20626E-05   -0.26652E-05   832   0.416E-02
  11 F= -.17898656E+03 E0= -.17893604E+03  d E =-.882013E-01
 curvature:  -1.69 expect dE=-0.170E+00 dE for cont linesearch -0.226E-04
 trial: gam= 1.14831 g(F)=  0.245E-01 g(S)=  0.763E-01 ort = 0.146E-02 (trialstep = 0.612E+00)
 search vector abs. value=  0.315E+00
 bond charge predicted
       N       E                     dE             d eps       ncg     rms          rms(c)
DAV:   1    -0.179074385700E+03   -0.87827E-01   -0.78177E+00  1088   0.130E+01    0.337E+00
DAV:   2    -0.181060319433E+03   -0.19859E+01   -0.10457E+01  2088   0.323E+01    0.182E+01
DAV:   3    -0.179000801268E+03    0.20595E+01   -0.87986E+00  2112   0.281E+01    0.117E+00
DAV:   4    -0.179054661431E+03   -0.53860E-01   -0.77783E-01  1976   0.593E+00    0.187E+00
DAV:   5    -0.179036048138E+03    0.18613E-01   -0.14876E-01  1888   0.420E+00    0.123E+00
DAV:   6    -0.179032172357E+03    0.38758E-02   -0.83187E-02  2000   0.260E+00    0.966E-01
DAV:   7    -0.179025883328E+03    0.62890E-02   -0.36493E-02  2096   0.167E+00    0.268E-01
DAV:   8    -0.179025593076E+03    0.29025E-03   -0.10477E-02  2000   0.759E-01    0.216E-01
DAV:   9    -0.179025241685E+03    0.35139E-03   -0.22639E-03  2072   0.416E-01    0.893E-02
DAV:  10    -0.179025337988E+03   -0.96303E-04   -0.17818E-03  2136   0.349E-01    0.137E-01
DAV:  11    -0.179025243241E+03    0.94747E-04   -0.92788E-04  2128   0.319E-01    0.878E-02
DAV:  12    -0.179025181342E+03    0.61899E-04   -0.30536E-04  2064   0.170E-01    0.230E-02
DAV:  13    -0.179025184139E+03   -0.27975E-05   -0.38107E-05  1056   0.587E-02
  12 F= -.17902518E+03 E0= -.17897552E+03  d E =-.386238E-01
 trial-energy change:   -0.038624  1 .order   -0.037861   -0.062738   -0.012984
 step:   0.7557(harm=  0.7720)  dis= 0.02386  next Energy=  -179.026716 (dE=-0.402E-01)
 bond charge predicted
       N       E                     dE             d eps       ncg     rms          rms(c)
DAV:   1    -0.179029534185E+03   -0.43528E-02   -0.43481E-01  1120   0.312E+00    0.773E-01
DAV:   2    -0.179134705696E+03   -0.10517E+00   -0.55921E-01  2120   0.737E+00    0.412E+00
DAV:   3    -0.179026222038E+03    0.10848E+00   -0.42840E-01  2136   0.631E+00    0.236E-01
DAV:   4    -0.179028447546E+03   -0.22255E-02   -0.31261E-02  1752   0.118E+00    0.351E-01
DAV:   5    -0.179027290982E+03    0.11566E-02   -0.97517E-03  1776   0.788E-01    0.168E-01
DAV:   6    -0.179027403426E+03   -0.11244E-03   -0.22371E-03  2096   0.477E-01    0.203E-01
DAV:   7    -0.179027101433E+03    0.30199E-03   -0.14255E-03  2088   0.366E-01    0.443E-02
DAV:   8    -0.179027114827E+03   -0.13394E-04   -0.35801E-04  2048   0.159E-01    0.494E-02
DAV:   9    -0.179027089040E+03    0.25787E-04   -0.15288E-04  1656   0.113E-01    0.179E-02
DAV:  10    -0.179027086536E+03    0.25041E-05   -0.36759E-05  1000   0.547E-02
  13 F= -.17902709E+03 E0= -.17897758E+03  d E =-.405262E-01
 curvature:  -1.17 expect dE=-0.289E-01 dE for cont linesearch -0.339E-04
 trial: gam= 0.23434 g(F)=  0.209E-01 g(S)=  0.378E-02 ort = 0.302E-02 (trialstep = 0.641E+00)
 search vector abs. value=  0.433E-01
 bond charge predicted
       N       E                     dE             d eps       ncg     rms          rms(c)
DAV:   1    -0.179040207225E+03   -0.13118E-01   -0.12251E+00  1088   0.386E+00    0.418E-01
DAV:   2    -0.179069943718E+03   -0.29736E-01   -0.20324E-01  2160   0.397E+00    0.194E+00
DAV:   3    -0.179041467037E+03    0.28477E-01   -0.12432E-01  2160   0.328E+00    0.300E-01
DAV:   4    -0.179041325785E+03    0.14125E-03   -0.84817E-03  1832   0.792E-01    0.194E-01
DAV:   5    -0.179040884675E+03    0.44111E-03   -0.24341E-03  1840   0.465E-01    0.118E-01
DAV:   6    -0.179041071056E+03   -0.18638E-03   -0.44801E-03  1984   0.506E-01    0.173E-01
DAV:   7    -0.179040684847E+03    0.38621E-03   -0.22491E-03  2136   0.380E-01    0.584E-02
DAV:   8    -0.179040667099E+03    0.17748E-04   -0.23379E-04  1976   0.138E-01    0.344E-02
DAV:   9    -0.179040670317E+03   -0.32172E-05   -0.93304E-05  1632   0.110E-01
  14 F= -.17904067E+03 E0= -.17899090E+03  d E =-.135838E-01
 trial-energy change:   -0.013584  1 .order   -0.013598   -0.016258   -0.010939
 step:   1.9591(harm=  1.9591)  dis= 0.02988  next Energy=  -179.051933 (dE=-0.248E-01)
 bond charge predicted
       N       E                     dE             d eps       ncg     rms          rms(c)
DAV:   1    -0.179050307209E+03   -0.96401E-02   -0.51965E+00  1088   0.801E+00    0.874E-01
DAV:   2    -0.179180366538E+03   -0.13006E+00   -0.88697E-01  2160   0.827E+00    0.408E+00
DAV:   3    -0.179055783967E+03    0.12458E+00   -0.54651E-01  2160   0.679E+00    0.617E-01
DAV:   4    -0.179055286866E+03    0.49710E-03   -0.38158E-02  1832   0.165E+00    0.399E-01
DAV:   5    -0.179053347804E+03    0.19391E-02   -0.10604E-02  1824   0.968E-01    0.234E-01
DAV:   6    -0.179054119255E+03   -0.77145E-03   -0.18198E-02  1848   0.101E+00    0.344E-01
DAV:   7    -0.179052503041E+03    0.16162E-02   -0.89817E-03  1992   0.745E-01    0.966E-02
DAV:   8    -0.179052484472E+03    0.18569E-04   -0.12281E-03  1976   0.262E-01    0.694E-02
DAV:   9    -0.179052482060E+03    0.24115E-05   -0.40927E-04  1944   0.215E-01    0.731E-02
DAV:  10    -0.179052445540E+03    0.36521E-04   -0.22901E-04  1920   0.153E-01    0.266E-02
DAV:  11    -0.179052443295E+03    0.22444E-05   -0.33741E-05  1000   0.610E-02
  15 F= -.17905244E+03 E0= -.17900222E+03  d E =-.253568E-01
 curvature:  -1.67 expect dE=-0.988E-02 dE for cont linesearch -0.359E-04
 trial: gam= 0.21791 g(F)=  0.545E-02 g(S)=  0.452E-03 ort = 0.964E-03 (trialstep = 0.905E+00)
 search vector abs. value=  0.838E-02
 bond charge predicted
       N       E                     dE             d eps       ncg     rms          rms(c)
DAV:   1    -0.179056650298E+03   -0.42048E-02   -0.51158E-01  1088   0.254E+00    0.278E-01
DAV:   2    -0.179069331792E+03   -0.12681E-01   -0.85055E-02  2168   0.262E+00    0.125E+00
DAV:   3    -0.179057196876E+03    0.12135E-01   -0.52970E-02  2160   0.217E+00    0.198E-01
DAV:   4    -0.179057154637E+03    0.42239E-04   -0.36138E-03  1816   0.515E-01    0.124E-01
DAV:   5    -0.179056982850E+03    0.17179E-03   -0.12053E-03  1840   0.324E-01    0.830E-02
DAV:   6    -0.179057103920E+03   -0.12107E-03   -0.18846E-03  2144   0.373E-01    0.143E-01
DAV:   7    -0.179056936832E+03    0.16709E-03   -0.10199E-03  2080   0.318E-01    0.707E-02
DAV:   8    -0.179056900694E+03    0.36138E-04   -0.18453E-04  1952   0.136E-01    0.199E-02
DAV:   9    -0.179056901969E+03   -0.12749E-05   -0.58834E-05  1320   0.641E-02
  16 F= -.17905690E+03 E0= -.17900663E+03  d E =-.445867E-02
 trial-energy change:   -0.004459  1 .order   -0.004410   -0.005531   -0.003288
 step:   1.9392(harm=  2.2306)  dis= 0.01641  next Energy=  -179.058856 (dE=-0.641E-02)
 bond charge predicted
       N       E                     dE             d eps       ncg     rms          rms(c)
DAV:   1    -0.179058856605E+03   -0.19559E-02   -0.66921E-01  1088   0.291E+00    0.327E-01
DAV:   2    -0.179076594728E+03   -0.17738E-01   -0.11733E-01  2168   0.309E+00    0.149E+00
DAV:   3    -0.179059517724E+03    0.17077E-01   -0.73761E-02  2160   0.257E+00    0.225E-01
DAV:   4    -0.179059479277E+03    0.38447E-04   -0.49498E-03  1784   0.596E-01    0.141E-01
DAV:   5    -0.179059255841E+03    0.22344E-03   -0.16203E-03  1808   0.374E-01    0.942E-02
DAV:   6    -0.179059402029E+03   -0.14619E-03   -0.24503E-03  2136   0.413E-01    0.156E-01
DAV:   7    -0.179059190598E+03    0.21143E-03   -0.13161E-03  2096   0.352E-01    0.773E-02
DAV:   8    -0.179059148661E+03    0.41937E-04   -0.21807E-04  1968   0.152E-01    0.236E-02
DAV:   9    -0.179059151132E+03   -0.24711E-05   -0.86602E-05  1560   0.739E-02
  17 F= -.17905915E+03 E0= -.17900881E+03  d E =-.670784E-02
 curvature:  -1.46 expect dE=-0.241E-02 dE for cont linesearch -0.851E-04
 ZBRENT: extrapolating
 opt :   2.1861  next Energy=  -179.059238 (dE=-0.679E-02)
 bond charge predicted
       N       E                     dE             d eps       ncg     rms          rms(c)
DAV:   1    -0.179059214262E+03   -0.65601E-04   -0.38236E-02  1088   0.700E-01    0.854E-02
DAV:   2    -0.179060478797E+03   -0.12645E-02   -0.80164E-03  2168   0.817E-01    0.408E-01
DAV:   3    -0.179059248136E+03    0.12307E-02   -0.52114E-03  2160   0.684E-01    0.546E-02
DAV:   4    -0.179059248393E+03   -0.25692E-06   -0.33133E-04  1768   0.150E-01    0.337E-02
DAV:   5    -0.179059236591E+03    0.11802E-04   -0.93069E-05  1400   0.918E-02    0.229E-02
DAV:   6    -0.179059243036E+03   -0.64455E-05   -0.13279E-04  1688   0.960E-02    0.332E-02
DAV:   7    -0.179059231454E+03    0.11582E-04   -0.46990E-05  1176   0.844E-02    0.188E-02
DAV:   8    -0.179059229300E+03    0.21538E-05   -0.18711E-05   676   0.426E-02
  18 F= -.17905923E+03 E0= -.17900886E+03  d E =-.678601E-02
 curvature:  -1.48 expect dE=-0.367E-02 dE for cont linesearch -0.417E-06
 trial: gam= 0.47582 g(F)=  0.164E-02 g(S)=  0.845E-03 ort =-0.486E-04 (trialstep = 0.116E+01)
 search vector abs. value=  0.434E-02
 bond charge predicted
       N       E                     dE             d eps       ncg     rms          rms(c)
DAV:   1    -0.179063888999E+03   -0.46575E-02   -0.42887E-01  1192   0.327E+00    0.830E-01
DAV:   2    -0.179186100292E+03   -0.12221E+00   -0.65214E-01  2104   0.776E+00    0.441E+00
DAV:   3    -0.179059528678E+03    0.12657E+00   -0.49467E-01  2128   0.659E+00    0.265E-01
DAV:   4    -0.179062119642E+03   -0.25910E-02   -0.35097E-02  1736   0.124E+00    0.372E-01
DAV:   5    -0.179060655571E+03    0.14641E-02   -0.11458E-02  1744   0.842E-01    0.149E-01
DAV:   6    -0.179060862156E+03   -0.20659E-03   -0.27948E-03  2128   0.504E-01    0.215E-01
DAV:   7    -0.179060510440E+03    0.35172E-03   -0.15407E-03  2128   0.394E-01    0.488E-02
DAV:   8    -0.179060516954E+03   -0.65140E-05   -0.33726E-04  2048   0.160E-01    0.510E-02
DAV:   9    -0.179060488411E+03    0.28542E-04   -0.18169E-04  1840   0.122E-01    0.251E-02
DAV:  10    -0.179060483285E+03    0.51265E-05   -0.27030E-05   864   0.661E-02
  19 F= -.17906048E+03 E0= -.17900985E+03  d E =-.125398E-02
 trial-energy change:   -0.001254  1 .order   -0.001345   -0.002857    0.000166
 step:   1.0840(harm=  1.0970)  dis= 0.00543  next Energy=  -179.060489 (dE=-0.126E-02)
 bond charge predicted
       N       E                     dE             d eps       ncg     rms          rms(c)
DAV:   1    -0.179060506129E+03   -0.17717E-04   -0.19476E-03  1344   0.220E-01    0.588E-02
DAV:   2    -0.179061181373E+03   -0.67524E-03   -0.36302E-03  2168   0.560E-01    0.326E-01
DAV:   3    -0.179060482942E+03    0.69843E-03   -0.28348E-03  2144   0.500E-01    0.198E-02
DAV:   4    -0.179060493282E+03   -0.10340E-04   -0.16906E-04  1640   0.913E-02    0.200E-02
DAV:   5    -0.179060489396E+03    0.38856E-05   -0.22444E-05   856   0.528E-02
  20 F= -.17906049E+03 E0= -.17900987E+03  d E =-.126010E-02
 curvature:  -0.93 expect dE=-0.280E-02 dE for cont linesearch -0.347E-06
 trial: gam= 1.23407 g(F)=  0.111E-02 g(S)=  0.192E-02 ort =-0.403E-04 (trialstep = 0.521E+00)
 search vector abs. value=  0.953E-02
 bond charge predicted
       N       E                     dE             d eps       ncg     rms          rms(c)
DAV:   1    -0.179061810227E+03   -0.13169E-02   -0.17233E-01  1088   0.151E+00    0.232E-01
DAV:   2    -0.179071622703E+03   -0.98125E-02   -0.55607E-02  2104   0.223E+00    0.124E+00
DAV:   3    -0.179061777317E+03    0.98454E-02   -0.38270E-02  2104   0.187E+00    0.957E-02
DAV:   4    -0.179061905126E+03   -0.12781E-03   -0.26143E-03  1760   0.343E-01    0.924E-02
DAV:   5    -0.179061814799E+03    0.90328E-04   -0.92013E-04  1744   0.225E-01    0.538E-02
DAV:   6    -0.179061825473E+03   -0.10674E-04   -0.47645E-04  2136   0.167E-01    0.663E-02
DAV:   7    -0.179061785367E+03    0.40106E-04   -0.29369E-04  2064   0.138E-01    0.244E-02
DAV:   8    -0.179061785296E+03    0.71095E-07   -0.39880E-05  1152   0.826E-02
  21 F= -.17906179E+03 E0= -.17901116E+03  d E =-.129590E-02
 trial-energy change:   -0.001296  1 .order   -0.001272   -0.001552   -0.000991
 step:   1.4427(harm=  1.4427)  dis= 0.01137  next Energy=  -179.062637 (dE=-0.215E-02)
 bond charge predicted
       N       E                     dE             d eps       ncg     rms          rms(c)
DAV:   1    -0.179062846092E+03   -0.10607E-02   -0.53858E-01  1088   0.267E+00    0.399E-01
DAV:   2    -0.179091062413E+03   -0.28216E-01   -0.16186E-01  2104   0.381E+00    0.209E+00
DAV:   3    -0.179062802480E+03    0.28260E-01   -0.11063E-01  2104   0.318E+00    0.171E-01
DAV:   4    -0.179063158180E+03   -0.35570E-03   -0.78055E-03  1760   0.598E-01    0.163E-01
DAV:   5    -0.179062875695E+03    0.28249E-03   -0.29204E-03  1752   0.401E-01    0.984E-02
DAV:   6    -0.179062933305E+03   -0.57610E-04   -0.17532E-03  2160   0.321E-01    0.136E-01
DAV:   7    -0.179062782870E+03    0.15044E-03   -0.10466E-03  2160   0.272E-01    0.507E-02
DAV:   8    -0.179062776723E+03    0.61462E-05   -0.18327E-04  1904   0.143E-01    0.375E-02
DAV:   9    -0.179062767397E+03    0.93260E-05   -0.84559E-05  1472   0.899E-02
  22 F= -.17906277E+03 E0= -.17901216E+03  d E =-.227800E-02
 curvature:  -2.31 expect dE=-0.311E-02 dE for cont linesearch -0.300E-05
 trial: gam= 0.44932 g(F)=  0.123E-02 g(S)=  0.115E-03 ort = 0.111E-03 (trialstep = 0.705E+00)
 search vector abs. value=  0.337E-02
 bond charge predicted
       N       E                     dE             d eps       ncg     rms          rms(c)
DAV:   1    -0.179063574525E+03   -0.79780E-03   -0.10953E-01  1088   0.113E+00    0.941E-02
DAV:   2    -0.179064608687E+03   -0.10342E-02   -0.79126E-03  2168   0.748E-01    0.360E-01
DAV:   3    -0.179063699338E+03    0.90935E-03   -0.38759E-03  2168   0.607E-01    0.665E-02
DAV:   4    -0.179063703644E+03   -0.43059E-05   -0.59857E-04  1904   0.193E-01    0.644E-02
DAV:   5    -0.179063639924E+03    0.63720E-04   -0.37909E-04  1888   0.152E-01    0.256E-02
DAV:   6    -0.179063653129E+03   -0.13205E-04   -0.20595E-04  1784   0.116E-01    0.410E-02
DAV:   7    -0.179063629608E+03    0.23521E-04   -0.10087E-04  1408   0.926E-02    0.114E-02
DAV:   8    -0.179063629586E+03    0.22132E-07   -0.16789E-05   652   0.384E-02
  23 F= -.17906363E+03 E0= -.17901290E+03  d E =-.862189E-03
 ZBRENT: can't locate minimum, use default step
 trial-energy change:   -0.000862  1 .order   -0.000877   -0.000985   -0.000769
 step:   2.8217(harm=  3.2108)  dis= 0.01070  next Energy=  -179.065009 (dE=-0.224E-02)
 bond charge predicted
       N       E                     dE             d eps       ncg     rms          rms(c)
DAV:   1    -0.179064539550E+03   -0.90994E-03   -0.98702E-01  1088   0.339E+00    0.291E-01
DAV:   2    -0.179074942891E+03   -0.10403E-01   -0.76869E-02  2168   0.238E+00    0.115E+00
DAV:   3    -0.179065667767E+03    0.92751E-02   -0.38956E-02  2160   0.191E+00    0.200E-01
DAV:   4    -0.179065711652E+03   -0.43884E-04   -0.54397E-03  1856   0.584E-01    0.188E-01
DAV:   5    -0.179065174669E+03    0.53698E-03   -0.32788E-03  1896   0.458E-01    0.796E-02
DAV:   6    -0.179065317787E+03   -0.14312E-03   -0.21346E-03  2080   0.370E-01    0.137E-01
DAV:   7    -0.179065078858E+03    0.23893E-03   -0.12505E-03  2144   0.297E-01    0.346E-02
DAV:   8    -0.179065077246E+03    0.16118E-05   -0.11967E-04  1736   0.109E-01    0.290E-02
DAV:   9    -0.179065074925E+03    0.23216E-05   -0.43407E-05  1112   0.821E-02
  24 F= -.17906507E+03 E0= -.17901401E+03  d E =-.230753E-02
 curvature:  -3.78 expect dE=-0.367E-02 dE for cont linesearch -0.816E-04
 ZBRENT: extrapolating
 opt :   3.5177  next Energy=  -179.065169 (dE=-0.240E-02)
 bond charge predicted
       N       E                     dE             d eps       ncg     rms          rms(c)
DAV:   1    -0.179065116399E+03   -0.39153E-04   -0.10675E-01  1088   0.111E+00    0.990E-02
DAV:   2    -0.179066364389E+03   -0.12480E-02   -0.90311E-03  2168   0.821E-01    0.403E-01
DAV:   3    -0.179065234264E+03    0.11301E-02   -0.47832E-03  2168   0.667E-01    0.674E-02
DAV:   4    -0.179065237975E+03   -0.37110E-05   -0.61869E-04  1840   0.197E-01    0.611E-02
DAV:   5    -0.179065180076E+03    0.57899E-04   -0.34449E-04  1824   0.148E-01    0.255E-02
DAV:   6    -0.179065193749E+03   -0.13673E-04   -0.22396E-04  1744   0.117E-01    0.416E-02
DAV:   7    -0.179065168944E+03    0.24805E-04   -0.10810E-04  1440   0.914E-02    0.113E-02
DAV:   8    -0.179065169329E+03   -0.38487E-06   -0.20701E-05   708   0.390E-02
  25 F= -.17906517E+03 E0= -.17901402E+03  d E =-.240193E-02
 curvature:  -4.35 expect dE=-0.671E-02 dE for cont linesearch -0.320E-09
 trial: gam= 1.24122 g(F)=  0.842E-03 g(S)=  0.701E-03 ort = 0.498E-06 (trialstep = 0.634E+00)
 search vector abs. value=  0.674E-02
 bond charge predicted
       N       E                     dE             d eps       ncg     rms          rms(c)
DAV:   1    -0.179066362213E+03   -0.11933E-02   -0.17664E-01  1088   0.180E+00    0.402E-01
DAV:   2    -0.179094595696E+03   -0.28233E-01   -0.15164E-01  2104   0.380E+00    0.213E+00
DAV:   3    -0.179065576481E+03    0.29019E-01   -0.11365E-01  2104   0.322E+00    0.124E-01
DAV:   4    -0.179066188297E+03   -0.61182E-03   -0.85615E-03  1744   0.598E-01    0.188E-01
DAV:   5    -0.179065846138E+03    0.34216E-03   -0.27896E-03  1704   0.403E-01    0.836E-02
DAV:   6    -0.179065829206E+03    0.16931E-04   -0.41177E-04  2056   0.185E-01    0.613E-02
DAV:   7    -0.179065797476E+03    0.31730E-04   -0.23810E-04  1992   0.138E-01    0.252E-02
DAV:   8    -0.179065805873E+03   -0.83970E-05   -0.98930E-05  1736   0.103E-01
  26 F= -.17906581E+03 E0= -.17901469E+03  d E =-.636544E-03
 trial-energy change:   -0.000637  1 .order   -0.000602   -0.000979   -0.000225
 step:   0.8231(harm=  0.8231)  dis= 0.00509  next Energy=  -179.065805 (dE=-0.636E-03)
 bond charge predicted
       N       E                     dE             d eps       ncg     rms          rms(c)
DAV:   1    -0.179065889329E+03   -0.91853E-04   -0.15763E-02  1104   0.549E-01    0.117E-01
DAV:   2    -0.179068256088E+03   -0.23668E-02   -0.12818E-02  2104   0.111E+00    0.611E-01
DAV:   3    -0.179065834636E+03    0.24215E-02   -0.94786E-03  2112   0.932E-01    0.409E-02
DAV:   4    -0.179065881700E+03   -0.47064E-04   -0.73261E-04  1752   0.179E-01    0.529E-02
DAV:   5    -0.179065854292E+03    0.27408E-04   -0.24400E-04  1688   0.117E-01    0.228E-02
DAV:   6    -0.179065854099E+03    0.19308E-06   -0.46719E-05  1160   0.605E-02
  27 F= -.17906585E+03 E0= -.17901471E+03  d E =-.684770E-03
 curvature:  -1.80 expect dE=-0.175E-02 dE for cont linesearch -0.144E-04
 ZBRENT: increasing intervall
 opt :   1.2008  next Energy=  -179.065896 (dE=-0.726E-03)
 bond charge predicted
       N       E                     dE             d eps       ncg     rms          rms(c)
DAV:   1    -0.179065994191E+03   -0.13990E-03   -0.62676E-02  1088   0.107E+00    0.239E-01
DAV:   2    -0.179075917060E+03   -0.99229E-02   -0.53430E-02  2120   0.225E+00    0.126E+00
DAV:   3    -0.179065718789E+03    0.10198E-01   -0.39672E-02  2112   0.190E+00    0.749E-02
DAV:   4    -0.179065935795E+03   -0.21701E-03   -0.30128E-03  1752   0.356E-01    0.113E-01
DAV:   5    -0.179065812498E+03    0.12330E-03   -0.10438E-03  1720   0.247E-01    0.505E-02
DAV:   6    -0.179065810182E+03    0.23156E-05   -0.14727E-04  1832   0.125E-01    0.472E-02
DAV:   7    -0.179065792858E+03    0.17325E-04   -0.78337E-05  1528   0.985E-02    0.134E-02
DAV:   8    -0.179065796447E+03   -0.35891E-05   -0.47818E-05  1080   0.578E-02
  28 F= -.17906580E+03 E0= -.17901470E+03  d E =-.627118E-03
 curvature:  -5.20 expect dE=-0.139E-01 dE for cont linesearch -0.234E-03
 ZBRENT: bracketing found
 ZBRENT: interpolating
 opt :   0.9351  next Energy=  -179.065867 (dE=-0.698E-03)
 bond charge predicted
       N       E                     dE             d eps       ncg     rms          rms(c)
DAV:   1    -0.179065980281E+03   -0.18742E-03   -0.31154E-02  1088   0.759E-01    0.171E-01
DAV:   2    -0.179071173195E+03   -0.51929E-02   -0.28069E-02  2104   0.162E+00    0.913E-01
DAV:   3    -0.179065827809E+03    0.53454E-02   -0.20883E-02  2120   0.137E+00    0.523E-02
DAV:   4    -0.179065926624E+03   -0.98815E-04   -0.14211E-03  1720   0.245E-01    0.757E-02
DAV:   5    -0.179065868761E+03    0.57863E-04   -0.48429E-04  1696   0.164E-01    0.331E-02
DAV:   6    -0.179065859899E+03    0.88626E-05   -0.40654E-05  1080   0.655E-02
  29 F= -.17906586E+03 E0= -.17901474E+03  d E =-.690569E-03
 curvature:  -0.29 expect dE=-0.383E-03 dE for cont linesearch -0.590E-06
 trial: gam= 0.85714 g(F)=  0.564E-03 g(S)=  0.764E-03 ort =-0.117E-03 (trialstep = 0.694E+00)
 search vector abs. value=  0.608E-02
 bond charge predicted
       N       E                     dE             d eps       ncg     rms          rms(c)
DAV:   1    -0.179066482323E+03   -0.61356E-03   -0.18576E-01  1088   0.153E+00    0.193E-01
DAV:   2    -0.179072600060E+03   -0.61177E-02   -0.37073E-02  2128   0.178E+00    0.961E-01
DAV:   3    -0.179066570115E+03    0.60299E-02   -0.23810E-02  2128   0.147E+00    0.927E-02
DAV:   4    -0.179066647097E+03   -0.76982E-04   -0.19418E-03  1768   0.310E-01    0.917E-02
DAV:   5    -0.179066545936E+03    0.10116E-03   -0.97409E-04  1744   0.238E-01    0.549E-02
DAV:   6    -0.179066571474E+03   -0.25539E-04   -0.53051E-04  2112   0.199E-01    0.823E-02
DAV:   7    -0.179066514229E+03    0.57245E-04   -0.26579E-04  1968   0.164E-01    0.223E-02
DAV:   8    -0.179066511775E+03    0.24539E-05   -0.50617E-05  1184   0.726E-02
  30 F= -.17906651E+03 E0= -.17901534E+03  d E =-.651877E-03
 trial-energy change:   -0.000652  1 .order   -0.000643   -0.000852   -0.000434
 step:   1.4162(harm=  1.4162)  dis= 0.00931  next Energy=  -179.066729 (dE=-0.869E-03)
 bond charge predicted
       N       E                     dE             d eps       ncg     rms          rms(c)
DAV:   1    -0.179066701568E+03   -0.18734E-03   -0.20069E-01  1088   0.159E+00    0.202E-01
DAV:   2    -0.179073199011E+03   -0.64974E-02   -0.39425E-02  2128   0.184E+00    0.989E-01
DAV:   3    -0.179066781301E+03    0.64177E-02   -0.25495E-02  2128   0.152E+00    0.994E-02
DAV:   4    -0.179066859373E+03   -0.78072E-04   -0.21531E-03  1768   0.330E-01    0.975E-02
DAV:   5    -0.179066740310E+03    0.11906E-03   -0.10658E-03  1744   0.253E-01    0.552E-02
DAV:   6    -0.179066766588E+03   -0.26279E-04   -0.62242E-04  2160   0.203E-01    0.794E-02
DAV:   7    -0.179066707791E+03    0.58797E-04   -0.32125E-04  2032   0.163E-01    0.246E-02
DAV:   8    -0.179066704001E+03    0.37902E-05   -0.38208E-05  1040   0.774E-02
  31 F= -.17906670E+03 E0= -.17901550E+03  d E =-.844102E-03
 curvature:  -3.51 expect dE=-0.146E-02 dE for cont linesearch -0.258E-05
 trial: gam= 0.35238 g(F)=  0.348E-03 g(S)=  0.680E-04 ort =-0.669E-04 (trialstep = 0.839E+00)
 search vector abs. value=  0.112E-02
 bond charge predicted
       N       E                     dE             d eps       ncg     rms          rms(c)
DAV:   1    -0.179066952293E+03   -0.24450E-03   -0.49154E-02  1088   0.772E-01    0.930E-02
DAV:   2    -0.179068121338E+03   -0.11690E-02   -0.72802E-03  2128   0.787E-01    0.419E-01
DAV:   3    -0.179066972197E+03    0.11491E-02   -0.45208E-03  2128   0.657E-01    0.493E-02
DAV:   4    -0.179066996736E+03   -0.24539E-04   -0.61796E-04  1752   0.174E-01    0.587E-02
DAV:   5    -0.179066951554E+03    0.45182E-04   -0.34720E-04  1768   0.143E-01    0.227E-02
DAV:   6    -0.179066958358E+03   -0.68036E-05   -0.11422E-04  1648   0.947E-02    0.349E-02
DAV:   7    -0.179066945075E+03    0.13282E-04   -0.42523E-05  1136   0.765E-02    0.120E-02
DAV:   8    -0.179066945490E+03   -0.41454E-06   -0.25744E-05   816   0.348E-02
  32 F= -.17906695E+03 E0= -.17901577E+03  d E =-.241489E-03
 trial-energy change:   -0.000241  1 .order   -0.000252   -0.000329   -0.000175
 step:   1.7944(harm=  1.7944)  dis= 0.00474  next Energy=  -179.067056 (dE=-0.352E-03)
 bond charge predicted
       N       E                     dE             d eps       ncg     rms          rms(c)
DAV:   1    -0.179067066381E+03   -0.12131E-03   -0.63887E-02  1088   0.881E-01    0.102E-01
DAV:   2    -0.179068444781E+03   -0.13784E-02   -0.88436E-03  2112   0.864E-01    0.449E-01
DAV:   3    -0.179067097883E+03    0.13469E-02   -0.53912E-03  2112   0.716E-01    0.566E-02
DAV:   4    -0.179067124194E+03   -0.26312E-04   -0.72142E-04  1760   0.195E-01    0.634E-02
DAV:   5    -0.179067069533E+03    0.54662E-04   -0.43630E-04  1792   0.162E-01    0.254E-02
DAV:   6    -0.179067077458E+03   -0.79256E-05   -0.15519E-04  1664   0.103E-01    0.347E-02
DAV:   7    -0.179067060909E+03    0.16549E-04   -0.61588E-05  1216   0.777E-02    0.111E-02
DAV:   8    -0.179067061197E+03   -0.28781E-06   -0.20302E-05   724   0.372E-02
  33 F= -.17906706E+03 E0= -.17901592E+03  d E =-.357196E-03
 curvature:  -2.57 expect dE=-0.777E-03 dE for cont linesearch -0.175E-05
 trial: gam= 0.59291 g(F)=  0.127E-03 g(S)=  0.176E-03 ort = 0.277E-04 (trialstep = 0.103E+01)
 search vector abs. value=  0.730E-03
 bond charge predicted
       N       E                     dE             d eps       ncg     rms          rms(c)
DAV:   1    -0.179067779575E+03   -0.71867E-03   -0.50977E-02  1248   0.123E+00    0.334E-01
DAV:   2    -0.179086837895E+03   -0.19058E-01   -0.10014E-01  2120   0.303E+00    0.176E+00
DAV:   3    -0.179066965509E+03    0.19872E-01   -0.79180E-02  2128   0.264E+00    0.103E-01
DAV:   4    -0.179067423225E+03   -0.45772E-03   -0.60362E-03  1736   0.512E-01    0.168E-01
DAV:   5    -0.179067125870E+03    0.29735E-03   -0.20232E-03  1728   0.344E-01    0.589E-02
DAV:   6    -0.179067127694E+03   -0.18242E-05   -0.26347E-04  1976   0.140E-01    0.562E-02
DAV:   7    -0.179067105424E+03    0.22270E-04   -0.11155E-04  1832   0.113E-01    0.179E-02
DAV:   8    -0.179067105510E+03   -0.86437E-07   -0.41678E-05  1064   0.625E-02
  34 F= -.17906711E+03 E0= -.17901586E+03  d E =-.443138E-04
 trial-energy change:   -0.000044  1 .order   -0.000067   -0.000328    0.000194
 step:   0.6468(harm=  0.6468)  dis= 0.00120  next Energy=  -179.067164 (dE=-0.103E-03)
 bond charge predicted
       N       E                     dE             d eps       ncg     rms          rms(c)
DAV:   1    -0.179067220198E+03   -0.11477E-03   -0.70352E-03  1252   0.457E-01    0.124E-01
DAV:   2    -0.179069951817E+03   -0.27316E-02   -0.14113E-02  2112   0.115E+00    0.665E-01
DAV:   3    -0.179067113413E+03    0.28384E-02   -0.11170E-02  2112   0.100E+00    0.344E-02
DAV:   4    -0.179067180846E+03   -0.67434E-04   -0.83309E-04  1744   0.190E-01    0.620E-02
DAV:   5    -0.179067144923E+03    0.35923E-04   -0.24263E-04  1704   0.123E-01    0.251E-02
DAV:   6    -0.179067144151E+03    0.77243E-06   -0.20952E-05   832   0.605E-02
  35 F= -.17906714E+03 E0= -.17901595E+03  d E =-.829542E-04
 curvature:  -0.74 expect dE=-0.184E-03 dE for cont linesearch -0.684E-05
 ZBRENT: interpolating
 opt :   0.5143  next Energy=  -179.067150 (dE=-0.884E-04)
 bond charge predicted
       N       E                     dE             d eps       ncg     rms          rms(c)
DAV:   1    -0.179067150798E+03   -0.58751E-05   -0.83864E-04  1356   0.163E-01    0.462E-02
DAV:   2    -0.179067525048E+03   -0.37425E-03   -0.19747E-03  2120   0.407E-01    0.246E-01
DAV:   3    -0.179067136103E+03    0.38895E-03   -0.15106E-03  2112   0.368E-01    0.126E-02
DAV:   4    -0.179067146039E+03   -0.99362E-05   -0.11185E-04  1576   0.728E-02    0.229E-02
DAV:   5    -0.179067140070E+03    0.59689E-05   -0.18289E-05   808   0.525E-02
  36 F= -.17906714E+03 E0= -.17901595E+03  d E =-.788737E-04
 curvature:  -0.59 expect dE=-0.811E-04 dE for cont linesearch -0.357E-08
 trial: gam= 0.49728 g(F)=  0.719E-04 g(S)=  0.658E-04 ort =-0.210E-05 (trialstep = 0.927E+00)
 search vector abs. value=  0.316E-03
 bond charge predicted
       N       E                     dE             d eps       ncg     rms          rms(c)
DAV:   1    -0.179067231713E+03   -0.85674E-04   -0.15969E-02  1088   0.456E-01    0.800E-02
DAV:   2    -0.179068409316E+03   -0.11776E-02   -0.67854E-03  2112   0.770E-01    0.426E-01
DAV:   3    -0.179067220016E+03    0.11893E-02   -0.47319E-03  2112   0.650E-01    0.352E-02
DAV:   4    -0.179067233374E+03   -0.13357E-04   -0.30518E-04  1736   0.124E-01    0.292E-02
DAV:   5    -0.179067225064E+03    0.83092E-05   -0.93642E-05  1496   0.791E-02
  37 F= -.17906723E+03 E0= -.17901602E+03  d E =-.849941E-04
 trial-energy change:   -0.000085  1 .order   -0.000090   -0.000127   -0.000053
 step:   1.5993(harm=  1.5993)  dis= 0.00186  next Energy=  -179.067249 (dE=-0.109E-03)
 reached required accuracy - stopping structural energy minimisation
