<?xml version="1.0" encoding="ISO-8859-1"?>
<modeling>
 <generator>
  <i name="program" type="string">vasp </i>
  <i name="version" type="string">5.4.4.18Apr17-6-g9f103f2a35  </i>
  <i name="subversion" type="string">(build Jul 11 2019 11:52:51) complex            parallel </i>
  <i name="platform" type="string">LinuxIFC </i>
  <i name="date" type="string">2023 11 29 </i>
  <i name="time" type="string">16:54:05 </i>
 </generator>
 <incar>
  <i type="int" name="ISTART">     0</i>
  <i type="string" name="PREC">normal</i>
  <i type="int" name="IBRION">     2</i>
  <i name="EDIFF">      0.00001000</i>
  <i name="EDIFFG">     -0.01000000</i>
  <i type="int" name="NSW">   500</i>
  <i type="int" name="ISIF">     3</i>
  <i name="POTIM">      0.50000000</i>
  <i type="int" name="ISMEAR">     0</i>
  <i name="SIGMA">      0.10000000</i>
  <i name="PSTRESS">      0.00000000</i>
  <i type="logical" name="LWAVE"> F  </i>
  <i type="logical" name="LCHARG"> F  </i>
  <v type="int" name="KPOINT_BSE">    -1     0     0     0</v>
 </incar>
 <structure name="primitive_cell" >
  <crystal>
   <varray name="basis" >
    <v>       6.36762200       0.00000000       0.00000000 </v>
    <v>      -1.84554300       9.65512400       0.00000000 </v>
    <v>       0.00081300      -0.00352300       4.21391200 </v>
   </varray>
   <i name="volume">    259.07206824 </i>
   <varray name="rec_basis" >
    <v>       0.15704450       0.03001850      -0.00000520 </v>
    <v>       0.00000000       0.10357195       0.00008659 </v>
    <v>       0.00000000       0.00000000       0.23730918 </v>
   </varray>
  </crystal>
  <varray name="positions" >
   <v>      -0.43189500       0.47433500       0.12407300 </v>
   <v>      -0.35889600      -0.36031700      -0.49862400 </v>
   <v>      -0.03472500      -0.42519800       0.12533600 </v>
   <v>      -0.24435300       0.26746100       0.12349000 </v>
   <v>       0.16293700       0.37254200       0.12329400 </v>
   <v>       0.46432300       0.31953100      -0.37655500 </v>
   <v>       0.33181200      -0.31307800       0.00148400 </v>
   <v>      -0.13944900       0.42785200      -0.37640000 </v>
   <v>       0.27215900      -0.47475300      -0.37537600 </v>
   <v>       0.36455800       0.16720400       0.12409400 </v>
   <v>      -0.26975400      -0.21172400       0.00174500 </v>
   <v>       0.03491000      -0.26261700      -0.49836400 </v>
   <v>       0.42846400      -0.16387500      -0.49819300 </v>
   <v>      -0.33704100       0.12727300      -0.37527600 </v>
   <v>       0.05521100       0.22079900      -0.37649200 </v>
   <v>      -0.46437800      -0.01393800       0.00182900 </v>
   <v>      -0.16231300      -0.06415600      -0.49809000 </v>
   <v>       0.13751800      -0.11437000       0.00186500 </v>
   <v>       0.26743900       0.02616400      -0.37393600 </v>
   <v>      -0.05045000       0.06840300       0.12533700 </v>
  </varray>
 </structure>
 <varray name="primitive_index" >
  <v type="int" >        1 </v>
  <v type="int" >       14 </v>
  <v type="int" >        2 </v>
  <v type="int" >        6 </v>
  <v type="int" >        4 </v>
  <v type="int" >        7 </v>
  <v type="int" >       20 </v>
  <v type="int" >       11 </v>
  <v type="int" >        9 </v>
  <v type="int" >        5 </v>
  <v type="int" >       15 </v>
  <v type="int" >       19 </v>
  <v type="int" >       13 </v>
  <v type="int" >       18 </v>
  <v type="int" >        8 </v>
  <v type="int" >       17 </v>
  <v type="int" >       12 </v>
  <v type="int" >       16 </v>
  <v type="int" >       10 </v>
  <v type="int" >        3 </v>
 </varray>
 <kpoints>
  <generation param="Gamma">
   <v type="int" name="divisions">       2        2        3 </v>
   <v name="usershift">      0.00000000       0.00000000       0.00000000 </v>
   <v name="genvec1">      0.50000000      -0.00000000      -0.00000000 </v>
   <v name="genvec2">      0.00000000       0.50000000       0.00000000 </v>
   <v name="genvec3">      0.00000000       0.00000000       0.33333333 </v>
   <v name="shift">      0.00000000       0.00000000       0.00000000 </v>
  </generation>
  <varray name="kpointlist" >
   <v>       0.00000000       0.00000000       0.00000000 </v>
   <v>       0.50000000      -0.00000000      -0.00000000 </v>
   <v>       0.00000000       0.50000000       0.00000000 </v>
   <v>       0.50000000       0.50000000       0.00000000 </v>
   <v>       0.00000000       0.00000000       0.33333333 </v>
   <v>       0.50000000      -0.00000000       0.33333333 </v>
   <v>       0.00000000       0.50000000       0.33333333 </v>
   <v>       0.50000000       0.50000000       0.33333333 </v>
  </varray>
  <varray name="weights" >
   <v>       0.08333333 </v>
   <v>       0.08333333 </v>
   <v>       0.08333333 </v>
   <v>       0.08333333 </v>
   <v>       0.16666667 </v>
   <v>       0.16666667 </v>
   <v>       0.16666667 </v>
   <v>       0.16666667 </v>
  </varray>
 </kpoints>
 <parameters>
  <separator name="general" >
   <i type="string" name="SYSTEM">unknown system</i>
   <i type="logical" name="LCOMPAT"> F  </i>
  </separator>
  <separator name="electronic" >
   <i type="string" name="PREC">normal</i>
   <i name="ENMAX">    267.88200000</i>
   <i name="ENAUG">    511.36800000</i>
   <i name="EDIFF">      0.00001000</i>
   <i type="int" name="IALGO">    38</i>
   <i type="int" name="IWAVPR">    11</i>
   <i type="int" name="NBANDS">    68</i>
   <i name="NELECT">    109.00000000</i>
   <i type="int" name="TURBO">     0</i>
   <i type="int" name="IRESTART">     0</i>
   <i type="int" name="NREBOOT">     0</i>
   <i type="int" name="NMIN">     0</i>
   <i name="EREF">      0.00000000</i>
   <separator name="electronic smearing" >
    <i type="int" name="ISMEAR">     0</i>
    <i name="SIGMA">      0.10000000</i>
    <i name="KSPACING">      0.50000000</i>
    <i type="logical" name="KGAMMA"> T  </i>
   </separator>
   <separator name="electronic projectors" >
    <i type="logical" name="LREAL"> F  </i>
    <v name="ROPT">      0.00000000      0.00000000</v>
    <i type="int" name="LMAXPAW">  -100</i>
    <i type="int" name="LMAXMIX">     2</i>
    <i type="logical" name="NLSPLINE"> F  </i>
   </separator>
   <separator name="electronic startup" >
    <i type="int" name="ISTART">     0</i>
    <i type="int" name="ICHARG">     2</i>
    <i type="int" name="INIWAV">     1</i>
   </separator>
   <separator name="electronic spin" >
    <i type="int" name="ISPIN">     1</i>
    <i type="logical" name="LNONCOLLINEAR"> F  </i>
    <v name="MAGMOM">      1.00000000      1.00000000      1.00000000      1.00000000      1.00000000      1.00000000      1.00000000      1.00000000      1.00000000      1.00000000      1.00000000      1.00000000      1.00000000      1.00000000      1.00000000      1.00000000      1.00000000      1.00000000      1.00000000      1.00000000
</v>
    <i name="NUPDOWN">     -1.00000000</i>
    <i type="logical" name="LSORBIT"> F  </i>
    <v name="SAXIS">      0.00000000      0.00000000      1.00000000</v>
    <i type="logical" name="LSPIRAL"> F  </i>
    <v name="QSPIRAL">      0.00000000      0.00000000      0.00000000</v>
    <i type="logical" name="LZEROZ"> F  </i>
   </separator>
   <separator name="electronic exchange-correlation" >
    <i type="logical" name="LASPH"> F  </i>
    <i type="logical" name="LMETAGGA"> F  </i>
   </separator>
   <separator name="electronic convergence" >
    <i type="int" name="NELM">    60</i>
    <i type="int" name="NELMDL">    -5</i>
    <i type="int" name="NELMIN">     2</i>
    <i name="ENINI">    267.88200000</i>
    <separator name="electronic convergence detail" >
     <i type="logical" name="LDIAG"> T  </i>
     <i type="logical" name="LSUBROT"> F  </i>
     <i name="WEIMIN">      0.00100000</i>
     <i name="EBREAK">      0.00000004</i>
     <i name="DEPER">      0.30000000</i>
     <i type="int" name="NRMM">     4</i>
     <i name="TIME">      0.40000000</i>
    </separator>
   </separator>
   <separator name="electronic mixer" >
    <i name="AMIX">      0.40000000</i>
    <i name="BMIX">      1.00000000</i>
    <i name="AMIN">      0.10000000</i>
    <i name="AMIX_MAG">      1.60000000</i>
    <i name="BMIX_MAG">      1.00000000</i>
    <separator name="electronic mixer details" >
     <i type="int" name="IMIX">     4</i>
     <i type="logical" name="MIXFIRST"> F  </i>
     <i type="int" name="MAXMIX">   -45</i>
     <i name="WC">    100.00000000</i>
     <i type="int" name="INIMIX">     1</i>
     <i type="int" name="MIXPRE">     1</i>
     <i type="int" name="MREMOVE">     5</i>
    </separator>
   </separator>
   <separator name="electronic dipolcorrection" >
    <i type="logical" name="LDIPOL"> F  </i>
    <i type="logical" name="LMONO"> F  </i>
    <i type="int" name="IDIPOL">     0</i>
    <i name="EPSILON">      1.00000000</i>
    <v name="DIPOL">   -100.00000000   -100.00000000   -100.00000000</v>
    <i name="EFIELD">      0.00000000</i>
   </separator>
  </separator>
  <separator name="grids" >
   <i type="int" name="NGX">    28</i>
   <i type="int" name="NGY">    40</i>
   <i type="int" name="NGZ">    18</i>
   <i type="int" name="NGXF">    56</i>
   <i type="int" name="NGYF">    80</i>
   <i type="int" name="NGZF">    36</i>
   <i type="logical" name="ADDGRID"> F  </i>
  </separator>
  <separator name="ionic" >
   <i type="int" name="NSW">   500</i>
   <i type="int" name="IBRION">     2</i>
   <i type="int" name="MDALGO">     0</i>
   <i type="int" name="ISIF">     3</i>
   <i name="PSTRESS">      0.00000000</i>
   <i name="EDIFFG">     -0.01000000</i>
   <i type="int" name="NFREE">     1</i>
   <i name="POTIM">      0.50000000</i>
   <i name="SMASS">     -3.00000000</i>
   <i name="SCALEE">      1.00000000</i>
  </separator>
  <separator name="ionic md" >
   <i name="TEBEG">      0.00010000</i>
   <i name="TEEND">      0.00010000</i>
   <i type="int" name="NBLOCK">     1</i>
   <i type="int" name="KBLOCK">   500</i>
   <i type="int" name="NPACO">   256</i>
   <i name="APACO">     16.00000000</i>
  </separator>
  <separator name="symmetry" >
   <i type="int" name="ISYM">     2</i>
   <i name="SYMPREC">      0.00001000</i>
  </separator>
  <separator name="dos" >
   <i type="int" name="LORBIT">     0</i>
   <v name="RWIGS">     -1.00000000     -1.00000000</v>
   <i type="int" name="NEDOS">   301</i>
   <i name="EMIN">     10.00000000</i>
   <i name="EMAX">    -10.00000000</i>
   <i name="EFERMI">      0.00000000</i>
  </separator>
  <separator name="writing" >
   <i type="int" name="NWRITE">     2</i>
   <i type="logical" name="LWAVE"> F  </i>
   <i type="logical" name="LDOWNSAMPLE"> F  </i>
   <i type="logical" name="LCHARG"> F  </i>
   <i type="logical" name="LPARD"> F  </i>
   <i type="logical" name="LVTOT"> F  </i>
   <i type="logical" name="LVHAR"> F  </i>
   <i type="logical" name="LELF"> F  </i>
   <i type="logical" name="LOPTICS"> F  </i>
   <v name="STM">      0.00000000      0.00000000      0.00000000      0.00000000      0.00000000      0.00000000      0.00000000</v>
  </separator>
  <separator name="performance" >
   <i type="int" name="NPAR">     4</i>
   <i type="int" name="NSIM">     4</i>
   <i type="int" name="NBLK">    -1</i>
   <i type="logical" name="LPLANE"> T  </i>
   <i type="logical" name="LSCALAPACK"> T  </i>
   <i type="logical" name="LSCAAWARE"> F  </i>
   <i type="logical" name="LSCALU"> F  </i>
   <i type="logical" name="LASYNC"> F  </i>
   <i type="logical" name="LORBITALREAL"> F  </i>
  </separator>
  <separator name="miscellaneous" >
   <i type="int" name="IDIOT">     3</i>
   <i type="int" name="ISPECIAL">     0</i>
   <i type="logical" name="LMUSIC"> F  </i>
   <v name="POMASS">     50.94100000     55.84700000</v>
   <v name="DARWINR">      0.00000000      0.00000000</v>
   <v name="DARWINV">      1.00000000      1.00000000</v>
   <i type="logical" name="LCORR"> T  </i>
  </separator>
  <i type="logical" name="GGA_COMPAT"> T  </i>
  <i type="logical" name="LBERRY"> F  </i>
  <i type="int" name="ICORELEVEL">     0</i>
  <i type="logical" name="LDAU"> F  </i>
  <i type="int" name="I_CONSTRAINED_M">     0</i>
  <separator name="electronic exchange-correlation" >
   <i type="string" name="GGA">--</i>
   <i type="int" name="VOSKOWN">     0</i>
   <i type="logical" name="LHFCALC"> F  </i>
   <i type="string" name="PRECFOCK"></i>
   <i type="logical" name="LSYMGRAD"> F  </i>
   <i type="logical" name="LHFONE"> F  </i>
   <i type="logical" name="LRHFCALC"> F  </i>
   <i type="logical" name="LTHOMAS"> F  </i>
   <i type="logical" name="LMODELHF"> F  </i>
   <i name="ENCUT4O">     -1.00000000</i>
   <i type="int" name="EXXOEP">     0</i>
   <i type="int" name="FOURORBIT">     0</i>
   <i name="AEXX">      0.00000000</i>
   <i name="HFALPHA">      0.00000000</i>
   <i name="MCALPHA">      0.00000000</i>
   <i name="ALDAX">      1.00000000</i>
   <i name="AGGAX">      1.00000000</i>
   <i name="ALDAC">      1.00000000</i>
   <i name="AGGAC">      1.00000000</i>
   <i type="int" name="NKREDX">     1</i>
   <i type="int" name="NKREDY">     1</i>
   <i type="int" name="NKREDZ">     1</i>
   <i type="logical" name="SHIFTRED"> F  </i>
   <i type="logical" name="ODDONLY"> F  </i>
   <i type="logical" name="EVENONLY"> F  </i>
   <i type="int" name="LMAXFOCK">     0</i>
   <i type="int" name="NMAXFOCKAE">     0</i>
   <i type="logical" name="LFOCKAEDFT"> F  </i>
   <i name="HFSCREEN">      0.00000000</i>
   <i name="HFSCREENC">      0.00000000</i>
   <i type="int" name="NBANDSGWLOW">     0</i>
  </separator>
  <separator name="vdW DFT" >
   <i type="logical" name="LUSE_VDW"> F  </i>
   <i name="Zab_VDW">     -0.84910000</i>
   <i name="PARAM1">      0.12340000</i>
   <i name="PARAM2">      1.00000000</i>
   <i name="PARAM3">      0.00000000</i>
  </separator>
  <separator name="model GW" >
   <i type="int" name="MODEL_GW">     0</i>
   <i name="MODEL_EPS0">      7.77216205</i>
   <i name="MODEL_ALPHA">      1.00000000</i>
  </separator>
  <separator name="linear response parameters" >
   <i type="logical" name="LEPSILON"> F  </i>
   <i type="logical" name="LRPA"> F  </i>
   <i type="logical" name="LNABLA"> F  </i>
   <i type="logical" name="LVEL"> F  </i>
   <i type="int" name="KINTER">     0</i>
   <i name="CSHIFT">      0.10000000</i>
   <i name="OMEGAMAX">     -1.00000000</i>
   <i name="DEG_THRESHOLD">      0.00200000</i>
   <i name="RTIME">     -0.10000000</i>
   <i name="WPLASMAI">      0.00000000</i>
   <v name="DFIELD">      0.00000000      0.00000000      0.00000000</v>
   <v name="WPLASMA">      0.00000000      0.00000000      0.00000000      0.00000000      0.00000000      0.00000000      0.00000000      0.00000000      0.00000000</v>
  </separator>
  <separator name="orbital magnetization" >
   <i type="logical" name="NUCIND"> F  </i>
   <v name="MAGPOS">      0.00000000      0.00000000      0.00000000</v>
   <i type="logical" name="LNICSALL"> T  </i>
   <i type="logical" name="ORBITALMAG"> F  </i>
   <i type="logical" name="LMAGBLOCH"> F  </i>
   <i type="logical" name="LCHIMAG"> F  </i>
   <i type="logical" name="LGAUGE"> T  </i>
   <i type="int" name="MAGATOM">     0</i>
   <v name="MAGDIPOL">      0.00000000      0.00000000      0.00000000</v>
   <v name="AVECCONST">      0.00000000      0.00000000      0.00000000</v>
  </separator>
  <separator name="response functions" >
   <i type="logical" name="LADDER"> F  </i>
   <i type="logical" name="LRPAFORCE"> F  </i>
   <i type="logical" name="LFXC"> F  </i>
   <i type="logical" name="LHARTREE"> T  </i>
   <i type="int" name="IBSE">     0</i>
   <v type="int" name="KPOINT">    -1     0     0     0</v>
   <i type="logical" name="LTCTE"> F  </i>
   <i type="logical" name="LTETE"> F  </i>
   <i type="logical" name="LTRIPLET"> F  </i>
   <i type="logical" name="LFXCEPS"> F  </i>
   <i type="logical" name="LFXHEG"> F  </i>
   <i type="int" name="NATURALO">     2</i>
   <i type="logical" name="L2ORDER"> F  </i>
   <i type="logical" name="LMP2LT"> F  </i>
   <i type="logical" name="LUSEW"> F  </i>
   <i name="ENCUTGW">     -2.00000000</i>
   <i name="ENCUTGWSOFT">     -2.00000000</i>
   <i name="ENCUTLF">     -1.00000000</i>
   <i type="int" name="LMAXMP2">    -1</i>
   <i name="SCISSOR">      0.00000000</i>
   <i type="int" name="NOMEGA">     0</i>
   <i type="int" name="NOMEGAR">     0</i>
   <i type="int" name="NBANDSGW">    -1</i>
   <i type="int" name="NBANDSO">    -1</i>
   <i type="int" name="NBANDSV">    -1</i>
   <i type="int" name="NELM">     1</i>
   <i type="int" name="NELMHF">     1</i>
   <i type="int" name="DIM">     3</i>
   <i type="int" name="ANTIRES">     0</i>
   <i name="OMEGAMAX">    -30.00000000</i>
   <i name="OMEGAMIN">    -30.00000000</i>
   <i name="OMEGATL">   -200.00000000</i>
   <i type="int" name="OMEGAGRID">   140</i>
   <i name="CSHIFT">     -0.10000000</i>
   <i type="logical" name="SELFENERGY"> F  </i>
   <i type="logical" name="LSPECTRAL"> F  </i>
   <i type="logical" name="LSPECTRALGW"> F  </i>
   <i type="logical" name="LSINGLES"> F  </i>
   <i type="logical" name="LFERMIGW"> F  </i>
   <i type="logical" name="ODDONLYGW"> F  </i>
   <i type="logical" name="EVENONLYGW"> F  </i>
   <i type="int" name="NKREDLFX">     1</i>
   <i type="int" name="NKREDLFY">     1</i>
   <i type="int" name="NKREDLFZ">     1</i>
   <i type="int" name="MAXMEM">  2800</i>
   <i type="int" name="TELESCOPE">     0</i>
   <i type="int" name="TAUPAR">     1</i>
   <i type="int" name="OMEGAPAR">    -1</i>
   <i name="LAMBDA">      1.00000000</i>
  </separator>
  <separator name="External order field" >
   <i name="OFIELD_KAPPA">      0.00000000</i>
   <v name="OFIELD_K">      0.00000000      0.00000000      0.00000000</v>
   <i name="OFIELD_Q6_NEAR">      0.00000000</i>
   <i name="OFIELD_Q6_FAR">      0.00000000</i>
   <i name="OFIELD_A">      0.00000000</i>
  </separator>
 </parameters>
 <atominfo>
  <atoms>      20 </atoms>
  <types>       2 </types>
  <array name="atoms" >
   <dimension dim="1">ion</dimension>
   <field type="string">element</field>
   <field type="int">atomtype</field>
   <set>
    <rc><c>V </c><c>   1</c></rc>
    <rc><c>V </c><c>   1</c></rc>
    <rc><c>V </c><c>   1</c></rc>
    <rc><c>V </c><c>   1</c></rc>
    <rc><c>V </c><c>   1</c></rc>
    <rc><c>V </c><c>   1</c></rc>
    <rc><c>V </c><c>   1</c></rc>
    <rc><c>V </c><c>   1</c></rc>
    <rc><c>V </c><c>   1</c></rc>
    <rc><c>V </c><c>   1</c></rc>
    <rc><c>V </c><c>   1</c></rc>
    <rc><c>V </c><c>   1</c></rc>
    <rc><c>V </c><c>   1</c></rc>
    <rc><c>V </c><c>   1</c></rc>
    <rc><c>V </c><c>   1</c></rc>
    <rc><c>V </c><c>   1</c></rc>
    <rc><c>V </c><c>   1</c></rc>
    <rc><c>Fe</c><c>   2</c></rc>
    <rc><c>Fe</c><c>   2</c></rc>
    <rc><c>Fe</c><c>   2</c></rc>
   </set>
  </array>
  <array name="atomtypes" >
   <dimension dim="1">type</dimension>
   <field type="int">atomspertype</field>
   <field type="string">element</field>
   <field>mass</field>
   <field>valence</field>
   <field type="string">pseudopotential</field>
   <set>
    <rc><c>  17</c><c>V </c><c>     50.94100000</c><c>      5.00000000</c><c>  PAW_PBE V 08Apr2002                   </c></rc>
    <rc><c>   3</c><c>Fe</c><c>     55.84700000</c><c>      8.00000000</c><c>  PAW_PBE Fe 06Sep2000                  </c></rc>
   </set>
  </array>
 </atominfo>
 <structure name="initialpos" >
  <crystal>
   <varray name="basis" >
    <v>       6.36762200       0.00000000       0.00000000 </v>
    <v>      -1.84554300       9.65512400       0.00000000 </v>
    <v>       0.00081300      -0.00352300       4.21391200 </v>
   </varray>
   <i name="volume">    259.07206824 </i>
   <varray name="rec_basis" >
    <v>       0.15704450       0.03001850      -0.00000520 </v>
    <v>       0.00000000       0.10357195       0.00008659 </v>
    <v>       0.00000000       0.00000000       0.23730918 </v>
   </varray>
  </crystal>
  <varray name="positions" >
   <v>       0.56810500       0.47433500       0.12407300 </v>
   <v>       0.96527500       0.57480200       0.12533600 </v>
   <v>       0.94955000       0.06840300       0.12533700 </v>
   <v>       0.16293700       0.37254200       0.12329400 </v>
   <v>       0.36455800       0.16720400       0.12409400 </v>
   <v>       0.75564700       0.26746100       0.12349000 </v>
   <v>       0.46432300       0.31953100       0.62344500 </v>
   <v>       0.05521100       0.22079900       0.62350800 </v>
   <v>       0.27215900       0.52524700       0.62462400 </v>
   <v>       0.26743900       0.02616400       0.62606400 </v>
   <v>       0.86055100       0.42785200       0.62360000 </v>
   <v>       0.83768700       0.93584400       0.50191000 </v>
   <v>       0.42846400       0.83612500       0.50180700 </v>
   <v>       0.64110400       0.63968300       0.50137600 </v>
   <v>       0.73024600       0.78827600       0.00174500 </v>
   <v>       0.13751800       0.88563000       0.00186500 </v>
   <v>       0.53562200       0.98606200       0.00182900 </v>
   <v>       0.66295900       0.12727300       0.62472400 </v>
   <v>       0.03491000       0.73738300       0.50163600 </v>
   <v>       0.33181200       0.68692200       0.00148400 </v>
  </varray>
 </structure>
 <calculation>
  <scstep>
   <time name="dav">    1.43    1.45</time>
   <time name="total">    1.48    1.50</time>
   <energy>
    <i name="alphaZ">    552.45260073 </i>
    <i name="ewald">  -5268.51278408 </i>
    <i name="hartreedc">   -825.53951429 </i>
    <i name="XCdc">   -770.69130270 </i>
    <i name="pawpsdc">   5171.05454107 </i>
    <i name="pawaedc">  -4356.08836938 </i>
    <i name="eentropy">     -0.07972408 </i>
    <i name="bandstr">   1443.07718101 </i>
    <i name="atom">   4687.48422623 </i>
    <i name="e_fr_energy">    633.15685452 </i>
    <i name="e_wo_entrp">    633.23657860 </i>
    <i name="e_0_energy">    633.19671656 </i>
   </energy>
  </scstep>
  <scstep>
   <time name="dav">    1.40    1.40</time>
   <time name="total">    1.40    1.40</time>
   <energy>
    <i name="e_fr_energy">    -71.82049283 </i>
    <i name="e_wo_entrp">    -71.75780471 </i>
    <i name="e_0_energy">    -71.78914877 </i>
   </energy>
  </scstep>
  <scstep>
   <time name="dav">    2.19    2.19</time>
   <time name="total">    2.19    2.19</time>
   <energy>
    <i name="e_fr_energy">   -190.83439773 </i>
    <i name="e_wo_entrp">   -190.76902136 </i>
    <i name="e_0_energy">   -190.80170954 </i>
   </energy>
  </scstep>
  <scstep>
   <time name="dav">    2.07    2.07</time>
   <time name="total">    2.07    2.07</time>
   <energy>
    <i name="e_fr_energy">   -202.76377863 </i>
    <i name="e_wo_entrp">   -202.67965226 </i>
    <i name="e_0_energy">   -202.72171544 </i>
   </energy>
  </scstep>
  <scstep>
   <time name="dav">    2.08    2.08</time>
   <time name="total">    2.13    2.14</time>
   <energy>
    <i name="e_fr_energy">   -203.35439340 </i>
    <i name="e_wo_entrp">   -203.26894041 </i>
    <i name="e_0_energy">   -203.31166690 </i>
   </energy>
  </scstep>
  <scstep>
   <time name="dav">    2.47    2.47</time>
   <time name="total">    2.58    2.58</time>
   <energy>
    <i name="e_fr_energy">   -228.89346598 </i>
    <i name="e_wo_entrp">   -228.77832390 </i>
    <i name="e_0_energy">   -228.83589494 </i>
   </energy>
  </scstep>
  <scstep>
   <time name="dav">    2.48    2.49</time>
   <time name="total">    2.59    2.60</time>
   <energy>
    <i name="e_fr_energy">   -182.08059374 </i>
    <i name="e_wo_entrp">   -181.99916808 </i>
    <i name="e_0_energy">   -182.03988091 </i>
   </energy>
  </scstep>
  <scstep>
   <time name="dav">    2.47    2.49</time>
   <time name="total">    2.58    2.59</time>
   <energy>
    <i name="e_fr_energy">   -190.86456794 </i>
    <i name="e_wo_entrp">   -190.75170307 </i>
    <i name="e_0_energy">   -190.80813550 </i>
   </energy>
  </scstep>
  <scstep>
   <time name="dav">    2.45    2.45</time>
   <time name="total">    2.55    2.55</time>
   <energy>
    <i name="e_fr_energy">   -178.14214783 </i>
    <i name="e_wo_entrp">   -178.03043329 </i>
    <i name="e_0_energy">   -178.08629056 </i>
   </energy>
  </scstep>
  <scstep>
   <time name="dav">    2.45    2.45</time>
   <time name="total">    2.55    2.55</time>
   <energy>
    <i name="e_fr_energy">   -176.51063653 </i>
    <i name="e_wo_entrp">   -176.40257164 </i>
    <i name="e_0_energy">   -176.45660409 </i>
   </energy>
  </scstep>
  <scstep>
   <time name="dav">    2.26    2.26</time>
   <time name="total">    2.36    2.36</time>
   <energy>
    <i name="e_fr_energy">   -176.27413526 </i>
    <i name="e_wo_entrp">   -176.16576334 </i>
    <i name="e_0_energy">   -176.21994930 </i>
   </energy>
  </scstep>
  <scstep>
   <time name="dav">    2.38    2.38</time>
   <time name="total">    2.48    2.48</time>
   <energy>
    <i name="e_fr_energy">   -176.30843473 </i>
    <i name="e_wo_entrp">   -176.20038303 </i>
    <i name="e_0_energy">   -176.25440888 </i>
   </energy>
  </scstep>
  <scstep>
   <time name="dav">    2.33    2.34</time>
   <time name="total">    2.43    2.44</time>
   <energy>
    <i name="e_fr_energy">   -176.00563427 </i>
    <i name="e_wo_entrp">   -175.89029149 </i>
    <i name="e_0_energy">   -175.94796288 </i>
   </energy>
  </scstep>
  <scstep>
   <time name="dav">    2.30    2.31</time>
   <time name="total">    2.41    2.41</time>
   <energy>
    <i name="e_fr_energy">   -176.00380928 </i>
    <i name="e_wo_entrp">   -175.88689516 </i>
    <i name="e_0_energy">   -175.94535222 </i>
   </energy>
  </scstep>
  <scstep>
   <time name="dav">    2.43    2.43</time>
   <time name="total">    2.54    2.54</time>
   <energy>
    <i name="e_fr_energy">   -175.79763830 </i>
    <i name="e_wo_entrp">   -175.67656702 </i>
    <i name="e_0_energy">   -175.73710266 </i>
   </energy>
  </scstep>
  <scstep>
   <time name="dav">    2.32    2.32</time>
   <time name="total">    2.42    2.43</time>
   <energy>
    <i name="e_fr_energy">   -175.75700716 </i>
    <i name="e_wo_entrp">   -175.63787609 </i>
    <i name="e_0_energy">   -175.69744162 </i>
   </energy>
  </scstep>
  <scstep>
   <time name="dav">    2.32    2.32</time>
   <time name="total">    2.42    2.42</time>
   <energy>
    <i name="e_fr_energy">   -175.75056586 </i>
    <i name="e_wo_entrp">   -175.63156405 </i>
    <i name="e_0_energy">   -175.69106496 </i>
   </energy>
  </scstep>
  <scstep>
   <time name="dav">    2.37    2.37</time>
   <time name="total">    2.47    2.47</time>
   <energy>
    <i name="e_fr_energy">   -175.73618770 </i>
    <i name="e_wo_entrp">   -175.61781921 </i>
    <i name="e_0_energy">   -175.67700346 </i>
   </energy>
  </scstep>
  <scstep>
   <time name="dav">    2.16    2.16</time>
   <time name="total">    2.26    2.26</time>
   <energy>
    <i name="e_fr_energy">   -175.73180549 </i>
    <i name="e_wo_entrp">   -175.61244683 </i>
    <i name="e_0_energy">   -175.67212616 </i>
   </energy>
  </scstep>
  <scstep>
   <time name="dav">    2.28    2.28</time>
   <time name="total">    2.38    2.39</time>
   <energy>
    <i name="e_fr_energy">   -175.72521329 </i>
    <i name="e_wo_entrp">   -175.60704635 </i>
    <i name="e_0_energy">   -175.66612982 </i>
   </energy>
  </scstep>
  <scstep>
   <time name="dav">    2.16    2.16</time>
   <time name="total">    2.26    2.27</time>
   <energy>
    <i name="e_fr_energy">   -175.72470474 </i>
    <i name="e_wo_entrp">   -175.60646305 </i>
    <i name="e_0_energy">   -175.66558390 </i>
   </energy>
  </scstep>
  <scstep>
   <time name="dav">    2.02    2.03</time>
   <time name="total">    2.13    2.13</time>
   <energy>
    <i name="e_fr_energy">   -175.72381684 </i>
    <i name="e_wo_entrp">   -175.60588751 </i>
    <i name="e_0_energy">   -175.66485218 </i>
   </energy>
  </scstep>
  <scstep>
   <time name="dav">    2.11    2.11</time>
   <time name="total">    2.21    2.21</time>
   <energy>
    <i name="e_fr_energy">   -175.72384643 </i>
    <i name="e_wo_entrp">   -175.60589520 </i>
    <i name="e_0_energy">   -175.66487081 </i>
   </energy>
  </scstep>
  <scstep>
   <time name="dav">    2.30    2.30</time>
   <time name="total">    2.40    2.41</time>
   <energy>
    <i name="e_fr_energy">   -175.72364147 </i>
    <i name="e_wo_entrp">   -175.60575362 </i>
    <i name="e_0_energy">   -175.66469755 </i>
   </energy>
  </scstep>
  <scstep>
   <time name="dav">    2.03    2.03</time>
   <time name="total">    2.14    2.15</time>
   <energy>
    <i name="e_fr_energy">   -175.72363992 </i>
    <i name="e_wo_entrp">   -175.60575609 </i>
    <i name="e_0_energy">   -175.66469801 </i>
   </energy>
  </scstep>
  <scstep>
   <time name="dav">    1.64    1.64</time>
   <time name="total">    1.75    1.75</time>
   <energy>
    <i name="e_fr_energy">   -175.72362775 </i>
    <i name="e_wo_entrp">   -175.60575434 </i>
    <i name="e_0_energy">   -175.66469105 </i>
   </energy>
  </scstep>
  <scstep>
   <time name="dav">    1.05    1.05</time>
   <time name="total">    1.10    1.10</time>
   <energy>
    <i name="alphaZ">    552.45260073 </i>
    <i name="ewald">  -5268.51278408 </i>
    <i name="hartreedc">   -662.56430411 </i>
    <i name="XCdc">   -768.94328643 </i>
    <i name="pawpsdc">   7729.70428997 </i>
    <i name="pawaedc">  -6927.08812820 </i>
    <i name="eentropy">     -0.11786767 </i>
    <i name="bandstr">    481.86162656 </i>
    <i name="atom">   4687.48422623 </i>
    <i name="e_fr_energy">   -175.72362700 </i>
    <i name="e_wo_entrp">   -175.60575932 </i>
    <i name="e_0_energy">   -175.66469316 </i>
   </energy>
  </scstep>
  <structure>
   <crystal>
    <varray name="basis" >
     <v>       6.36762200       0.00000000       0.00000000 </v>
     <v>      -1.84554300       9.65512400       0.00000000 </v>
     <v>       0.00081300      -0.00352300       4.21391200 </v>
    </varray>
    <i name="volume">    259.07206824 </i>
    <varray name="rec_basis" >
     <v>       0.15704450       0.03001850      -0.00000520 </v>
     <v>       0.00000000       0.10357195       0.00008659 </v>
     <v>       0.00000000       0.00000000       0.23730918 </v>
    </varray>
   </crystal>
   <varray name="positions" >
    <v>       0.56810500       0.47433500       0.12407300 </v>
    <v>       0.96527500       0.57480200       0.12533600 </v>
    <v>       0.94955000       0.06840300       0.12533700 </v>
    <v>       0.16293700       0.37254200       0.12329400 </v>
    <v>       0.36455800       0.16720400       0.12409400 </v>
    <v>       0.75564700       0.26746100       0.12349000 </v>
    <v>       0.46432300       0.31953100       0.62344500 </v>
    <v>       0.05521100       0.22079900       0.62350800 </v>
    <v>       0.27215900       0.52524700       0.62462400 </v>
    <v>       0.26743900       0.02616400       0.62606400 </v>
    <v>       0.86055100       0.42785200       0.62360000 </v>
    <v>       0.83768700       0.93584400       0.50191000 </v>
    <v>       0.42846400       0.83612500       0.50180700 </v>
    <v>       0.64110400       0.63968300       0.50137600 </v>
    <v>       0.73024600       0.78827600       0.00174500 </v>
    <v>       0.13751800       0.88563000       0.00186500 </v>
    <v>       0.53562200       0.98606200       0.00182900 </v>
    <v>       0.66295900       0.12727300       0.62472400 </v>
    <v>       0.03491000       0.73738300       0.50163600 </v>
    <v>       0.33181200       0.68692200       0.00148400 </v>
   </varray>
  </structure>
  <varray name="forces" >
   <v>      -0.55094213       0.22082152      -1.13147130 </v>
   <v>      -0.16812356       0.45282853      -1.37639216 </v>
   <v>       0.21079722       1.31056423      -1.88122475 </v>
   <v>       0.11845034      -0.13868032       0.17523685 </v>
   <v>      -0.63418776       1.00569533       0.34306217 </v>
   <v>       0.44595090       0.67749034      -0.02401576 </v>
   <v>       0.06555234       0.33484583       0.18255309 </v>
   <v>      -0.01341119       0.46108435       0.49259387 </v>
   <v>      -1.25340625       0.19891857      -1.03124197 </v>
   <v>      -1.77675247       0.97130450      -3.40791513 </v>
   <v>       0.17234317      -0.09773668      -0.25207522 </v>
   <v>       0.12233966      -1.02261373       1.73349797 </v>
   <v>       0.12695604      -1.19118363       0.17987751 </v>
   <v>       0.50245074      -0.12450537       1.51640838 </v>
   <v>      -0.12119349      -0.82608072      -0.43600297 </v>
   <v>      -0.06399826      -1.83223313       1.85724679 </v>
   <v>       1.72337400      -1.18210640       2.77967232 </v>
   <v>      -0.09582305       0.82027314      -1.51398648 </v>
   <v>       0.43866750      -0.05344151       0.76969735 </v>
   <v>       0.75095624       0.01475516       1.02447942 </v>
  </varray>
  <varray name="stress" >
   <v>      15.54451795      -6.25159632      -3.58332092 </v>
   <v>      -6.25159652     -12.90033114       0.14647792 </v>
   <v>      -3.58332079       0.14647789     -20.40825277 </v>
  </varray>
  <energy>
   <i name="e_fr_energy">   -175.72362700 </i>
   <i name="e_wo_entrp">   -175.66469316 </i>
   <i name="e_0_energy">     -0.11786767 </i>
  </energy>
  <time name="totalsc">   63.10   63.22</time>
 </calculation>
 <calculation>
  <scstep>
   <time name="dav">    1.42    1.42</time>
   <time name="total">    1.52    1.52</time>
   <energy>
    <i name="alphaZ">    556.33305036 </i>
    <i name="ewald">  -5307.50556888 </i>
    <i name="hartreedc">   -646.83131798 </i>
    <i name="XCdc">   -768.48459556 </i>
    <i name="pawpsdc">   7729.80170596 </i>
    <i name="pawaedc">  -6927.18421600 </i>
    <i name="eentropy">     -0.10741132 </i>
    <i name="bandstr">    498.70083949 </i>
    <i name="atom">   4687.48422623 </i>
    <i name="e_fr_energy">   -177.79328771 </i>
    <i name="e_wo_entrp">   -177.68587639 </i>
    <i name="e_0_energy">   -177.73958205 </i>
   </energy>
  </scstep>
  <scstep>
   <time name="dav">    2.33    2.34</time>
   <time name="total">    2.43    2.44</time>
   <energy>
    <i name="e_fr_energy">   -188.61384300 </i>
    <i name="e_wo_entrp">   -188.50122657 </i>
    <i name="e_0_energy">   -188.55753479 </i>
   </energy>
  </scstep>
  <scstep>
   <time name="dav">    2.54    2.54</time>
   <time name="total">    2.64    2.64</time>
   <energy>
    <i name="e_fr_energy">   -177.78089900 </i>
    <i name="e_wo_entrp">   -177.66931515 </i>
    <i name="e_0_energy">   -177.72510708 </i>
   </energy>
  </scstep>
  <scstep>
   <time name="dav">    2.15    2.15</time>
   <time name="total">    2.25    2.26</time>
   <energy>
    <i name="e_fr_energy">   -177.79299394 </i>
    <i name="e_wo_entrp">   -177.68661864 </i>
    <i name="e_0_energy">   -177.73980629 </i>
   </energy>
  </scstep>
  <scstep>
   <time name="dav">    2.31    2.31</time>
   <time name="total">    2.41    2.42</time>
   <energy>
    <i name="e_fr_energy">   -177.77680619 </i>
    <i name="e_wo_entrp">   -177.66655123 </i>
    <i name="e_0_energy">   -177.72167871 </i>
   </energy>
  </scstep>
  <scstep>
   <time name="dav">    2.37    2.37</time>
   <time name="total">    2.47    2.48</time>
   <energy>
    <i name="e_fr_energy">   -177.74110771 </i>
    <i name="e_wo_entrp">   -177.63189283 </i>
    <i name="e_0_energy">   -177.68650027 </i>
   </energy>
  </scstep>
  <scstep>
   <time name="dav">    2.39    2.39</time>
   <time name="total">    2.49    2.49</time>
   <energy>
    <i name="e_fr_energy">   -177.79792334 </i>
    <i name="e_wo_entrp">   -177.69080539 </i>
    <i name="e_0_energy">   -177.74436437 </i>
   </energy>
  </scstep>
  <scstep>
   <time name="dav">    2.38    2.38</time>
   <time name="total">    2.48    2.49</time>
   <energy>
    <i name="e_fr_energy">   -177.70479324 </i>
    <i name="e_wo_entrp">   -177.59580121 </i>
    <i name="e_0_energy">   -177.65029722 </i>
   </energy>
  </scstep>
  <scstep>
   <time name="dav">    2.26    2.26</time>
   <time name="total">    2.36    2.36</time>
   <energy>
    <i name="e_fr_energy">   -177.69566776 </i>
    <i name="e_wo_entrp">   -177.58771057 </i>
    <i name="e_0_energy">   -177.64168916 </i>
   </energy>
  </scstep>
  <scstep>
   <time name="dav">    2.39    2.39</time>
   <time name="total">    2.49    2.49</time>
   <energy>
    <i name="e_fr_energy">   -177.68463609 </i>
    <i name="e_wo_entrp">   -177.57686809 </i>
    <i name="e_0_energy">   -177.63075209 </i>
   </energy>
  </scstep>
  <scstep>
   <time name="dav">    2.44    2.44</time>
   <time name="total">    2.55    2.55</time>
   <energy>
    <i name="e_fr_energy">   -177.68198085 </i>
    <i name="e_wo_entrp">   -177.57398629 </i>
    <i name="e_0_energy">   -177.62798357 </i>
   </energy>
  </scstep>
  <scstep>
   <time name="dav">    2.43    2.43</time>
   <time name="total">    2.53    2.54</time>
   <energy>
    <i name="e_fr_energy">   -177.68260323 </i>
    <i name="e_wo_entrp">   -177.57471235 </i>
    <i name="e_0_energy">   -177.62865779 </i>
   </energy>
  </scstep>
  <scstep>
   <time name="dav">    2.31    2.31</time>
   <time name="total">    2.41    2.42</time>
   <energy>
    <i name="e_fr_energy">   -177.68102886 </i>
    <i name="e_wo_entrp">   -177.57325522 </i>
    <i name="e_0_energy">   -177.62714204 </i>
   </energy>
  </scstep>
  <scstep>
   <time name="dav">    2.50    2.50</time>
   <time name="total">    2.60    2.60</time>
   <energy>
    <i name="e_fr_energy">   -177.68125433 </i>
    <i name="e_wo_entrp">   -177.57345380 </i>
    <i name="e_0_energy">   -177.62735407 </i>
   </energy>
  </scstep>
  <scstep>
   <time name="dav">    2.41    2.42</time>
   <time name="total">    2.52    2.52</time>
   <energy>
    <i name="e_fr_energy">   -177.68096838 </i>
    <i name="e_wo_entrp">   -177.57317309 </i>
    <i name="e_0_energy">   -177.62707074 </i>
   </energy>
  </scstep>
  <scstep>
   <time name="dav">    2.03    2.03</time>
   <time name="total">    2.13    2.13</time>
   <energy>
    <i name="e_fr_energy">   -177.68094966 </i>
    <i name="e_wo_entrp">   -177.57317292 </i>
    <i name="e_0_energy">   -177.62706129 </i>
   </energy>
  </scstep>
  <scstep>
   <time name="dav">    2.05    2.05</time>
   <time name="total">    2.15    2.15</time>
   <energy>
    <i name="e_fr_energy">   -177.68091854 </i>
    <i name="e_wo_entrp">   -177.57314911 </i>
    <i name="e_0_energy">   -177.62703383 </i>
   </energy>
  </scstep>
  <scstep>
   <time name="dav">    1.36    1.36</time>
   <time name="total">    1.41    1.41</time>
   <energy>
    <i name="alphaZ">    556.33305036 </i>
    <i name="ewald">  -5307.50556888 </i>
    <i name="hartreedc">   -637.21257538 </i>
    <i name="XCdc">   -768.70747291 </i>
    <i name="pawpsdc">   7673.70159068 </i>
    <i name="pawaedc">  -6870.83896411 </i>
    <i name="eentropy">     -0.10775914 </i>
    <i name="bandstr">    489.17255425 </i>
    <i name="atom">   4687.48422623 </i>
    <i name="e_fr_energy">   -177.68091890 </i>
    <i name="e_wo_entrp">   -177.57315976 </i>
    <i name="e_0_energy">   -177.62703933 </i>
   </energy>
  </scstep>
  <structure>
   <crystal>
    <varray name="basis" >
     <v>       6.40622897      -0.01552671      -0.00889968 </v>
     <v>      -1.88027545       9.61104275       0.00313104 </v>
     <v>      -0.00506303      -0.00326650       4.18036762 </v>
    </varray>
    <i name="volume">    257.26502818 </i>
    <varray name="rec_basis" >
     <v>       0.15617242       0.03055303       0.00021302 </v>
     <v>       0.00025241       0.10409634       0.00008165 </v>
     <v>       0.00033229      -0.00001292       0.23921380 </v>
    </varray>
   </crystal>
   <varray name="positions" >
    <v>       0.56425100       0.47543363       0.11111944 </v>
    <v>       0.96465737       0.57705885       0.10957848 </v>
    <v>       0.95304545       0.07494349       0.10379994 </v>
    <v>       0.16363353       0.37184980       0.12530019 </v>
    <v>       0.36120957       0.17223048       0.12802152 </v>
    <v>       0.76000676       0.27084604       0.12321506 </v>
    <v>       0.46530451       0.32120485       0.62553495 </v>
    <v>       0.05577700       0.22310491       0.62914742 </v>
    <v>       0.26295122       0.52623661       0.61281790 </v>
    <v>       0.25538536       0.03100297       0.58704874 </v>
    <v>       0.86171524       0.42736260       0.62071414 </v>
    <v>       0.83713252       0.93074166       0.52175582 </v>
    <v>       0.42770077       0.83017390       0.50386631 </v>
    <v>       0.64473000       0.63906723       0.51873649 </v>
    <v>       0.72813161       0.78414660      -0.00324655 </v>
    <v>       0.13437928       0.87648285       0.02312755 </v>
    <v>       0.54696611       0.98016712       0.03365187 </v>
    <v>       0.66342130       0.13136524       0.60739124 </v>
    <v>       0.03815587       0.73711919       0.51044782 </v>
    <v>       0.33752254       0.68700001       0.01321268 </v>
   </varray>
  </structure>
  <varray name="forces" >
   <v>      -0.31515858       0.45093084      -0.66477080 </v>
   <v>      -0.28034247       0.21786741      -1.04843822 </v>
   <v>      -0.06085780       0.07984640      -0.85491359 </v>
   <v>      -0.08879891       0.24355482       0.06514113 </v>
   <v>      -0.28851239       0.22471012      -0.49954453 </v>
   <v>       0.11772736       0.51107162      -0.05446159 </v>
   <v>       0.06717467       0.32048282       0.14952937 </v>
   <v>      -0.05379942       0.19652644      -0.08010510 </v>
   <v>      -0.71441124       0.28542620      -0.75547316 </v>
   <v>      -0.04111062      -0.19561772      -0.63977282 </v>
   <v>       0.03951601       0.25840419      -0.32996343 </v>
   <v>       0.32304466      -0.05674832       0.73373752 </v>
   <v>       0.08930425      -0.34748937       0.65996846 </v>
   <v>       0.37572136      -0.81233111       0.91356613 </v>
   <v>       0.14839693      -0.43465481       0.29261062 </v>
   <v>       0.37844361      -0.05214903       0.44417876 </v>
   <v>      -0.00487295       0.07147171       0.63034384 </v>
   <v>      -0.36436398      -0.35756979      -0.48504025 </v>
   <v>       0.28347964      -0.27484232       0.74263181 </v>
   <v>       0.38941987      -0.32889010       0.78077585 </v>
  </varray>
  <varray name="stress" >
   <v>     -15.97751234      -0.39220876       0.72665596 </v>
   <v>      -0.39220877     -23.66941822       2.84024594 </v>
   <v>       0.72665591       2.84024591     -25.47341897 </v>
  </varray>
  <energy>
   <i name="e_fr_energy">   -177.68091890 </i>
   <i name="e_wo_entrp">   -177.62703933 </i>
   <i name="e_0_energy">     -0.10775914 </i>
  </energy>
  <time name="totalsc">   44.59   44.66</time>
 </calculation>
 <calculation>
  <scstep>
   <time name="dav">    1.38    1.39</time>
   <time name="total">    1.49    1.49</time>
   <energy>
    <i name="alphaZ">    558.29028317 </i>
    <i name="ewald">  -5317.21727960 </i>
    <i name="hartreedc">   -635.60108788 </i>
    <i name="XCdc">   -768.48626814 </i>
    <i name="pawpsdc">   7673.70350715 </i>
    <i name="pawaedc">  -6870.84068016 </i>
    <i name="eentropy">     -0.10138845 </i>
    <i name="bandstr">    494.88288693 </i>
    <i name="atom">   4687.48422623 </i>
    <i name="e_fr_energy">   -177.88580075 </i>
    <i name="e_wo_entrp">   -177.78441230 </i>
    <i name="e_0_energy">   -177.83510652 </i>
   </energy>
  </scstep>
  <scstep>
   <time name="dav">    2.45    2.45</time>
   <time name="total">    2.55    2.56</time>
   <energy>
    <i name="e_fr_energy">   -179.61276384 </i>
    <i name="e_wo_entrp">   -179.51622231 </i>
    <i name="e_0_energy">   -179.56449308 </i>
   </energy>
  </scstep>
  <scstep>
   <time name="dav">    2.50    2.51</time>
   <time name="total">    2.61    2.61</time>
   <energy>
    <i name="e_fr_energy">   -177.92272139 </i>
    <i name="e_wo_entrp">   -177.81955781 </i>
    <i name="e_0_energy">   -177.87113960 </i>
   </energy>
  </scstep>
  <scstep>
   <time name="dav">    2.22    2.22</time>
   <time name="total">    2.33    2.33</time>
   <energy>
    <i name="e_fr_energy">   -177.91017526 </i>
    <i name="e_wo_entrp">   -177.81013502 </i>
    <i name="e_0_energy">   -177.86015514 </i>
   </energy>
  </scstep>
  <scstep>
   <time name="dav">    2.40    2.41</time>
   <time name="total">    2.50    2.51</time>
   <energy>
    <i name="e_fr_energy">   -177.90972912 </i>
    <i name="e_wo_entrp">   -177.80876681 </i>
    <i name="e_0_energy">   -177.85924796 </i>
   </energy>
  </scstep>
  <scstep>
   <time name="dav">    2.44    2.44</time>
   <time name="total">    2.54    2.54</time>
   <energy>
    <i name="e_fr_energy">   -177.89637998 </i>
    <i name="e_wo_entrp">   -177.79461718 </i>
    <i name="e_0_energy">   -177.84549858 </i>
   </energy>
  </scstep>
  <scstep>
   <time name="dav">    2.38    2.38</time>
   <time name="total">    2.48    2.49</time>
   <energy>
    <i name="e_fr_energy">   -177.90541460 </i>
    <i name="e_wo_entrp">   -177.80563263 </i>
    <i name="e_0_energy">   -177.85552362 </i>
   </energy>
  </scstep>
  <scstep>
   <time name="dav">    2.36    2.37</time>
   <time name="total">    2.46    2.47</time>
   <energy>
    <i name="e_fr_energy">   -177.88426596 </i>
    <i name="e_wo_entrp">   -177.78364718 </i>
    <i name="e_0_energy">   -177.83395657 </i>
   </energy>
  </scstep>
  <scstep>
   <time name="dav">    2.43    2.43</time>
   <time name="total">    2.53    2.53</time>
   <energy>
    <i name="e_fr_energy">   -177.88442533 </i>
    <i name="e_wo_entrp">   -177.78360644 </i>
    <i name="e_0_energy">   -177.83401588 </i>
   </energy>
  </scstep>
  <scstep>
   <time name="dav">    2.41    2.42</time>
   <time name="total">    2.51    2.52</time>
   <energy>
    <i name="e_fr_energy">   -177.88391796 </i>
    <i name="e_wo_entrp">   -177.78326100 </i>
    <i name="e_0_energy">   -177.83358948 </i>
   </energy>
  </scstep>
  <scstep>
   <time name="dav">    2.27    2.28</time>
   <time name="total">    2.37    2.38</time>
   <energy>
    <i name="e_fr_energy">   -177.88379398 </i>
    <i name="e_wo_entrp">   -177.78306433 </i>
    <i name="e_0_energy">   -177.83342916 </i>
   </energy>
  </scstep>
  <scstep>
   <time name="dav">    2.37    2.38</time>
   <time name="total">    2.48    2.48</time>
   <energy>
    <i name="e_fr_energy">   -177.88376855 </i>
    <i name="e_wo_entrp">   -177.78308901 </i>
    <i name="e_0_energy">   -177.83342878 </i>
   </energy>
  </scstep>
  <scstep>
   <time name="dav">    2.23    2.24</time>
   <time name="total">    2.33    2.34</time>
   <energy>
    <i name="e_fr_energy">   -177.88375071 </i>
    <i name="e_wo_entrp">   -177.78308982 </i>
    <i name="e_0_energy">   -177.83342027 </i>
   </energy>
  </scstep>
  <scstep>
   <time name="dav">    1.35    1.35</time>
   <time name="total">    1.39    1.40</time>
   <energy>
    <i name="alphaZ">    558.29028317 </i>
    <i name="ewald">  -5317.21727960 </i>
    <i name="hartreedc">   -632.72406588 </i>
    <i name="XCdc">   -768.56877899 </i>
    <i name="pawpsdc">   7693.68086659 </i>
    <i name="pawaedc">  -6890.96989520 </i>
    <i name="eentropy">     -0.10065839 </i>
    <i name="bandstr">    492.24155078 </i>
    <i name="atom">   4687.48422623 </i>
    <i name="e_fr_energy">   -177.88375129 </i>
    <i name="e_wo_entrp">   -177.78309290 </i>
    <i name="e_0_energy">   -177.83342209 </i>
   </energy>
  </scstep>
  <structure>
   <crystal>
    <varray name="basis" >
     <v>       6.42531055      -0.02320082      -0.01329836 </v>
     <v>      -1.89744204       9.58925550       0.00467856 </v>
     <v>      -0.00796728      -0.00313973       4.16378823 </v>
    </varray>
    <i name="volume">    256.36311824 </i>
    <varray name="rec_basis" >
     <v>       0.15574644       0.03081765       0.00032125 </v>
     <v>       0.00037698       0.10435794       0.00007941 </v>
     <v>       0.00049700      -0.00001883       0.24016685 </v>
    </varray>
   </crystal>
   <varray name="positions" >
    <v>       0.56235454       0.47597620       0.10466129 </v>
    <v>       0.96435422       0.57817911       0.10172631 </v>
    <v>       0.95477561       0.07819402       0.09307103 </v>
    <v>       0.16397448       0.37150664       0.12630069 </v>
    <v>       0.35958240       0.17472354       0.12997295 </v>
    <v>       0.76216082       0.27253026       0.12308140 </v>
    <v>       0.46579348       0.32203671       0.62657661 </v>
    <v>       0.05606546       0.22425023       0.63195684 </v>
    <v>       0.25842348       0.52672079       0.60692589 </v>
    <v>       0.24945942       0.03339649       0.56759622 </v>
    <v>       0.86228452       0.42712055       0.61927774 </v>
    <v>       0.83685191       0.92820757       0.53164467 </v>
    <v>       0.42730665       0.82721841       0.50489368 </v>
    <v>       0.64651802       0.63876418       0.52738983 </v>
    <v>       0.72707629       0.78209462      -0.00573414 </v>
    <v>       0.13281560       0.87193834       0.03372101 </v>
    <v>       0.55253652       0.97724882       0.04952065 </v>
    <v>       0.66365436       0.13339770       0.59875472 </v>
    <v>       0.03975434       0.73699068       0.51484153 </v>
    <v>       0.34033489       0.68704314       0.01906207 </v>
   </varray>
  </structure>
  <varray name="forces" >
   <v>      -0.19089217       0.51706157      -0.36289905 </v>
   <v>      -0.32603973       0.01790198      -0.85042700 </v>
   <v>      -0.09255197      -0.42034956      -0.32473476 </v>
   <v>      -0.19418326       0.42987078       0.01561785 </v>
   <v>      -0.12265801       0.01730712      -0.86984989 </v>
   <v>      -0.05770174       0.45551830      -0.05251962 </v>
   <v>       0.03868922       0.27126522       0.07493192 </v>
   <v>      -0.09090067       0.18173485      -0.47398764 </v>
   <v>      -0.44136136       0.29570073      -0.55971889 </v>
   <v>       0.53101791      -0.60671512       0.42594494 </v>
   <v>      -0.02546507       0.44414655      -0.36188088 </v>
   <v>       0.32602152       0.32864958       0.22175613 </v>
   <v>       0.14475960      -0.00052973       0.94541702 </v>
   <v>       0.26288707      -1.09432708       0.52109901 </v>
   <v>       0.32993213      -0.33631809       0.74702159 </v>
   <v>       0.48895315       0.57703307      -0.16642893 </v>
   <v>      -0.61210772       0.51133538      -0.18056956 </v>
   <v>      -0.37969823      -0.69731153      -0.07335743 </v>
   <v>       0.21083171      -0.38618652       0.72468151 </v>
   <v>       0.20046761      -0.50578751       0.59990368 </v>
  </varray>
  <varray name="stress" >
   <v>     -19.27614079       2.70602903       3.81410819 </v>
   <v>       2.70602902     -14.88299350       2.54238287 </v>
   <v>       3.81410804       2.54238291     -18.13380327 </v>
  </varray>
  <energy>
   <i name="e_fr_energy">   -177.88375129 </i>
   <i name="e_wo_entrp">   -177.83342209 </i>
   <i name="e_0_energy">     -0.10065839 </i>
  </energy>
  <time name="totalsc">   35.27   35.33</time>
 </calculation>
 <calculation>
  <scstep>
   <time name="dav">    1.41    1.42</time>
   <time name="total">    1.51    1.52</time>
   <energy>
    <i name="alphaZ">    571.79475218 </i>
    <i name="ewald">  -5367.34866311 </i>
    <i name="hartreedc">   -632.81159109 </i>
    <i name="XCdc">   -767.16208368 </i>
    <i name="pawpsdc">   7693.72796810 </i>
    <i name="pawaedc">  -6891.01411323 </i>
    <i name="eentropy">     -0.10310210 </i>
    <i name="bandstr">    526.75865071 </i>
    <i name="atom">   4687.48422623 </i>
    <i name="e_fr_energy">   -178.67395598 </i>
    <i name="e_wo_entrp">   -178.57085389 </i>
    <i name="e_0_energy">   -178.62240493 </i>
   </energy>
  </scstep>
  <scstep>
   <time name="dav">    2.33    2.34</time>
   <time name="total">    2.44    2.45</time>
   <energy>
    <i name="e_fr_energy">   -191.41567679 </i>
    <i name="e_wo_entrp">   -191.29478852 </i>
    <i name="e_0_energy">   -191.35523266 </i>
   </energy>
  </scstep>
  <scstep>
   <time name="dav">    2.24    2.25</time>
   <time name="total">    2.34    2.35</time>
   <energy>
    <i name="e_fr_energy">   -178.28392003 </i>
    <i name="e_wo_entrp">   -178.18488390 </i>
    <i name="e_0_energy">   -178.23440196 </i>
   </energy>
  </scstep>
  <scstep>
   <time name="dav">    2.15    2.15</time>
   <time name="total">    2.25    2.25</time>
   <energy>
    <i name="e_fr_energy">   -178.51672502 </i>
    <i name="e_wo_entrp">   -178.41807415 </i>
    <i name="e_0_energy">   -178.46739958 </i>
   </energy>
  </scstep>
  <scstep>
   <time name="dav">    2.22    2.23</time>
   <time name="total">    2.32    2.33</time>
   <energy>
    <i name="e_fr_energy">   -178.41516723 </i>
    <i name="e_wo_entrp">   -178.31451881 </i>
    <i name="e_0_energy">   -178.36484302 </i>
   </energy>
  </scstep>
  <scstep>
   <time name="dav">    2.44    2.46</time>
   <time name="total">    2.54    2.56</time>
   <energy>
    <i name="e_fr_energy">   -178.44351506 </i>
    <i name="e_wo_entrp">   -178.34270517 </i>
    <i name="e_0_energy">   -178.39311011 </i>
   </energy>
  </scstep>
  <scstep>
   <time name="dav">    2.44    2.44</time>
   <time name="total">    2.54    2.54</time>
   <energy>
    <i name="e_fr_energy">   -178.38691271 </i>
    <i name="e_wo_entrp">   -178.28780508 </i>
    <i name="e_0_energy">   -178.33735890 </i>
   </energy>
  </scstep>
  <scstep>
   <time name="dav">    2.33    2.33</time>
   <time name="total">    2.43    2.43</time>
   <energy>
    <i name="e_fr_energy">   -178.37185366 </i>
    <i name="e_wo_entrp">   -178.27163206 </i>
    <i name="e_0_energy">   -178.32174286 </i>
   </energy>
  </scstep>
  <scstep>
   <time name="dav">    2.28    2.28</time>
   <time name="total">    2.38    2.38</time>
   <energy>
    <i name="e_fr_energy">   -178.36789259 </i>
    <i name="e_wo_entrp">   -178.26826268 </i>
    <i name="e_0_energy">   -178.31807764 </i>
   </energy>
  </scstep>
  <scstep>
   <time name="dav">    2.29    2.30</time>
   <time name="total">    2.39    2.40</time>
   <energy>
    <i name="e_fr_energy">   -178.36486537 </i>
    <i name="e_wo_entrp">   -178.26469197 </i>
    <i name="e_0_energy">   -178.31477867 </i>
   </energy>
  </scstep>
  <scstep>
   <time name="dav">    2.38    2.39</time>
   <time name="total">    2.49    2.49</time>
   <energy>
    <i name="e_fr_energy">   -178.36495455 </i>
    <i name="e_wo_entrp">   -178.26492962 </i>
    <i name="e_0_energy">   -178.31494208 </i>
   </energy>
  </scstep>
  <scstep>
   <time name="dav">    2.34    2.34</time>
   <time name="total">    2.44    2.45</time>
   <energy>
    <i name="e_fr_energy">   -178.36369182 </i>
    <i name="e_wo_entrp">   -178.26359178 </i>
    <i name="e_0_energy">   -178.31364180 </i>
   </energy>
  </scstep>
  <scstep>
   <time name="dav">    2.27    2.27</time>
   <time name="total">    2.37    2.38</time>
   <energy>
    <i name="e_fr_energy">   -178.36365123 </i>
    <i name="e_wo_entrp">   -178.26352186 </i>
    <i name="e_0_energy">   -178.31358654 </i>
   </energy>
  </scstep>
  <scstep>
   <time name="dav">    2.44    2.44</time>
   <time name="total">    2.54    2.54</time>
   <energy>
    <i name="e_fr_energy">   -178.36353321 </i>
    <i name="e_wo_entrp">   -178.26342488 </i>
    <i name="e_0_energy">   -178.31347905 </i>
   </energy>
  </scstep>
  <scstep>
   <time name="dav">    2.03    2.04</time>
   <time name="total">    2.14    2.14</time>
   <energy>
    <i name="e_fr_energy">   -178.36349068 </i>
    <i name="e_wo_entrp">   -178.26334759 </i>
    <i name="e_0_energy">   -178.31341913 </i>
   </energy>
  </scstep>
  <scstep>
   <time name="dav">    2.35    2.36</time>
   <time name="total">    2.45    2.46</time>
   <energy>
    <i name="e_fr_energy">   -178.36343150 </i>
    <i name="e_wo_entrp">   -178.26329036 </i>
    <i name="e_0_energy">   -178.31336093 </i>
   </energy>
  </scstep>
  <scstep>
   <time name="dav">    1.18    1.18</time>
   <time name="total">    1.22    1.23</time>
   <energy>
    <i name="alphaZ">    571.79475218 </i>
    <i name="ewald">  -5367.34866311 </i>
    <i name="hartreedc">   -617.17222102 </i>
    <i name="XCdc">   -767.55431319 </i>
    <i name="pawpsdc">   7881.41092413 </i>
    <i name="pawaedc">  -7080.04297772 </i>
    <i name="eentropy">     -0.10013686 </i>
    <i name="bandstr">    513.16498156 </i>
    <i name="atom">   4687.48422623 </i>
    <i name="e_fr_energy">   -178.36342779 </i>
    <i name="e_wo_entrp">   -178.26329093 </i>
    <i name="e_0_energy">   -178.31335936 </i>
   </energy>
  </scstep>
  <structure>
   <crystal>
    <varray name="basis" >
     <v>       6.38187343      -0.01933620      -0.00490578 </v>
     <v>      -1.87908778       9.51633933       0.01265356 </v>
     <v>      -0.00254255       0.00142457       4.12399025 </v>
    </varray>
    <i name="volume">    250.30841457 </i>
    <varray name="rec_basis" >
     <v>       0.15678767       0.03095904       0.00008597 </v>
     <v>       0.00031855       0.10514537      -0.00003612 </v>
     <v>       0.00018553      -0.00028579       0.24248381 </v>
    </varray>
   </crystal>
   <varray name="positions" >
    <v>       0.56072042       0.47908830       0.09696249 </v>
    <v>       0.96153393       0.57879995       0.08715504 </v>
    <v>       0.95413954       0.07740961       0.08383152 </v>
    <v>       0.16323453       0.37371811       0.12697012 </v>
    <v>       0.35781870       0.17599641       0.11982212 </v>
    <v>       0.76344810       0.27584947       0.12234797 </v>
    <v>       0.46678992       0.32393368       0.62802695 </v>
    <v>       0.05574250       0.22579577       0.62725595 </v>
    <v>       0.25311321       0.52857372       0.59698288 </v>
    <v>       0.25005944       0.03118691       0.56377748 </v>
    <v>       0.86306200       0.42946090       0.61398638 </v>
    <v>       0.83994987       0.92882966       0.53918035 </v>
    <v>       0.42832639       0.82581874       0.51742316 </v>
    <v>       0.64775578       0.63257434       0.53814933 </v>
    <v>       0.72876120       0.77926900       0.00260223 </v>
    <v>       0.13704869       0.87298099       0.03665340 </v>
    <v>       0.55094576       0.97868085       0.05475661 </v>
    <v>       0.65949048       0.13049742       0.59370310 </v>
    <v>       0.04163248       0.73480105       0.52616459 </v>
    <v>       0.34250406       0.68427309       0.02948935 </v>
   </varray>
  </structure>
  <varray name="forces" >
   <v>      -0.23857674       0.26346866      -0.07763437 </v>
   <v>      -0.20064033       0.10496338      -0.48362747 </v>
   <v>      -0.08617371      -0.30627857      -0.00204121 </v>
   <v>      -0.18903944       0.29585208      -0.28495361 </v>
   <v>      -0.01119605      -0.03184014      -0.59811795 </v>
   <v>      -0.18793782       0.18491744      -0.14375297 </v>
   <v>      -0.14970079       0.12077598      -0.19909972 </v>
   <v>      -0.08029690       0.08718066      -0.46838135 </v>
   <v>      -0.13402692       0.23801228      -0.25840081 </v>
   <v>       0.51958162      -0.28048622       0.44346004 </v>
   <v>      -0.17200668       0.23801373      -0.38705698 </v>
   <v>       0.18101471       0.09346545      -0.06240035 </v>
   <v>       0.25442587       0.02663378       0.72133935 </v>
   <v>       0.19543728      -0.49911366       0.31617132 </v>
   <v>       0.28863183      -0.09893408       0.80594988 </v>
   <v>       0.32517479       0.40376327      -0.13099823 </v>
   <v>      -0.39610804       0.31597918      -0.22889976 </v>
   <v>      -0.24295927      -0.42080385       0.01133432 </v>
   <v>       0.19556890      -0.36556375       0.53121807 </v>
   <v>       0.12882769      -0.37000563       0.49589178 </v>
  </varray>
  <varray name="stress" >
   <v>      22.26982624       1.06220509       1.76860032 </v>
   <v>       1.06220498      25.89297781       1.53180965 </v>
   <v>       1.76860016       1.53180961      26.96041120 </v>
  </varray>
  <energy>
   <i name="e_fr_energy">   -178.36342779 </i>
   <i name="e_wo_entrp">   -178.31335936 </i>
   <i name="e_0_energy">     -0.10013686 </i>
  </energy>
  <time name="totalsc">   41.55   41.64</time>
 </calculation>
 <calculation>
  <scstep>
   <time name="dav">    1.41    1.41</time>
   <time name="total">    1.51    1.51</time>
   <energy>
    <i name="alphaZ">    579.62562607 </i>
    <i name="ewald">  -5393.94075732 </i>
    <i name="hartreedc">   -618.72582130 </i>
    <i name="XCdc">   -766.75298589 </i>
    <i name="pawpsdc">   7881.39997500 </i>
    <i name="pawaedc">  -7080.03070228 </i>
    <i name="eentropy">     -0.10146734 </i>
    <i name="bandstr">    532.50887692 </i>
    <i name="atom">   4687.48422623 </i>
    <i name="e_fr_energy">   -178.53302992 </i>
    <i name="e_wo_entrp">   -178.43156258 </i>
    <i name="e_0_energy">   -178.48229625 </i>
   </energy>
  </scstep>
  <scstep>
   <time name="dav">    2.43    2.44</time>
   <time name="total">    2.54    2.54</time>
   <energy>
    <i name="e_fr_energy">   -182.87270877 </i>
    <i name="e_wo_entrp">   -182.76256159 </i>
    <i name="e_0_energy">   -182.81763518 </i>
   </energy>
  </scstep>
  <scstep>
   <time name="dav">    2.36    2.37</time>
   <time name="total">    2.48    2.48</time>
   <energy>
    <i name="e_fr_energy">   -178.39905258 </i>
    <i name="e_wo_entrp">   -178.29951541 </i>
    <i name="e_0_energy">   -178.34928400 </i>
   </energy>
  </scstep>
  <scstep>
   <time name="dav">    2.05    2.05</time>
   <time name="total">    2.15    2.15</time>
   <energy>
    <i name="e_fr_energy">   -178.48039199 </i>
    <i name="e_wo_entrp">   -178.37926665 </i>
    <i name="e_0_energy">   -178.42982932 </i>
   </energy>
  </scstep>
  <scstep>
   <time name="dav">    2.12    2.13</time>
   <time name="total">    2.22    2.23</time>
   <energy>
    <i name="e_fr_energy">   -178.46455352 </i>
    <i name="e_wo_entrp">   -178.36417645 </i>
    <i name="e_0_energy">   -178.41436499 </i>
   </energy>
  </scstep>
  <scstep>
   <time name="dav">    2.22    2.23</time>
   <time name="total">    2.32    2.33</time>
   <energy>
    <i name="e_fr_energy">   -178.46077981 </i>
    <i name="e_wo_entrp">   -178.35995609 </i>
    <i name="e_0_energy">   -178.41036795 </i>
   </energy>
  </scstep>
  <scstep>
   <time name="dav">    2.26    2.27</time>
   <time name="total">    2.36    2.37</time>
   <energy>
    <i name="e_fr_energy">   -178.45113232 </i>
    <i name="e_wo_entrp">   -178.35126685 </i>
    <i name="e_0_energy">   -178.40119959 </i>
   </energy>
  </scstep>
  <scstep>
   <time name="dav">    2.43    2.43</time>
   <time name="total">    2.53    2.53</time>
   <energy>
    <i name="e_fr_energy">   -178.44433149 </i>
    <i name="e_wo_entrp">   -178.34397684 </i>
    <i name="e_0_energy">   -178.39415416 </i>
   </energy>
  </scstep>
  <scstep>
   <time name="dav">    2.34    2.34</time>
   <time name="total">    2.44    2.44</time>
   <energy>
    <i name="e_fr_energy">   -178.44397056 </i>
    <i name="e_wo_entrp">   -178.34377718 </i>
    <i name="e_0_energy">   -178.39387387 </i>
   </energy>
  </scstep>
  <scstep>
   <time name="dav">    2.39    2.40</time>
   <time name="total">    2.50    2.50</time>
   <energy>
    <i name="e_fr_energy">   -178.44291244 </i>
    <i name="e_wo_entrp">   -178.34248754 </i>
    <i name="e_0_energy">   -178.39269999 </i>
   </energy>
  </scstep>
  <scstep>
   <time name="dav">    2.32    2.32</time>
   <time name="total">    2.42    2.42</time>
   <energy>
    <i name="e_fr_energy">   -178.44332898 </i>
    <i name="e_wo_entrp">   -178.34302088 </i>
    <i name="e_0_energy">   -178.39317493 </i>
   </energy>
  </scstep>
  <scstep>
   <time name="dav">    2.22    2.23</time>
   <time name="total">    2.33    2.33</time>
   <energy>
    <i name="e_fr_energy">   -178.44282419 </i>
    <i name="e_wo_entrp">   -178.34249625 </i>
    <i name="e_0_energy">   -178.39266022 </i>
   </energy>
  </scstep>
  <scstep>
   <time name="dav">    2.11    2.11</time>
   <time name="total">    2.21    2.21</time>
   <energy>
    <i name="e_fr_energy">   -178.44282370 </i>
    <i name="e_wo_entrp">   -178.34242212 </i>
    <i name="e_0_energy">   -178.39262291 </i>
   </energy>
  </scstep>
  <scstep>
   <time name="dav">    1.34    1.34</time>
   <time name="total">    1.39    1.39</time>
   <energy>
    <i name="alphaZ">    579.62562607 </i>
    <i name="ewald">  -5393.94075732 </i>
    <i name="hartreedc">   -610.27638640 </i>
    <i name="XCdc">   -766.96146295 </i>
    <i name="pawpsdc">   8002.34354611 </i>
    <i name="pawaedc">  -7201.85285362 </i>
    <i name="eentropy">     -0.10037441 </i>
    <i name="bandstr">    525.23561987 </i>
    <i name="atom">   4687.48422623 </i>
    <i name="e_fr_energy">   -178.44281642 </i>
    <i name="e_wo_entrp">   -178.34244201 </i>
    <i name="e_0_energy">   -178.39262922 </i>
   </energy>
  </scstep>
  <structure>
   <crystal>
    <varray name="basis" >
     <v>       6.35731575      -0.01715130      -0.00016093 </v>
     <v>      -1.86871099       9.47511533       0.01716232 </v>
     <v>       0.00052438       0.00400504       4.10149001 </v>
    </varray>
    <i name="volume">    246.92669102 </i>
    <varray name="rec_basis" >
     <v>       0.15738283       0.03103961      -0.00005043 </v>
     <v>       0.00028488       0.10559598      -0.00010315 </v>
     <v>       0.00000498      -0.00044064       0.24381426 </v>
    </varray>
   </crystal>
   <varray name="positions" >
    <v>       0.55979358       0.48086371       0.09256631 </v>
    <v>       0.95993671       0.57915824       0.07884004 </v>
    <v>       0.95378296       0.07696540       0.07855904 </v>
    <v>       0.16281225       0.37497795       0.12735064 </v>
    <v>       0.35682013       0.17672472       0.11402846 </v>
    <v>       0.76417999       0.27774032       0.12192416 </v>
    <v>       0.46735556       0.32501376       0.62885159 </v>
    <v>       0.05556077       0.22667761       0.62457125 </v>
    <v>       0.25009581       0.52963322       0.59131127 </v>
    <v>       0.25040385       0.02992904       0.56159943 </v>
    <v>       0.86350663       0.43079545       0.61096250 </v>
    <v>       0.84170862       0.92918132       0.54347761 </v>
    <v>       0.42890026       0.82501772       0.52457558 </v>
    <v>       0.64845641       0.62904483       0.54429648 </v>
    <v>       0.72971649       0.77765662       0.00736198 </v>
    <v>       0.13945592       0.87357325       0.03832125 </v>
    <v>       0.55003696       0.97949559       0.05774562 </v>
    <v>       0.65712448       0.12884746       0.59082753 </v>
    <v>       0.04269584       0.73355013       0.53262826 </v>
    <v>       0.34373377       0.68269168       0.03544200 </v>
   </varray>
  </structure>
  <varray name="forces" >
   <v>      -0.26940445       0.05604441       0.12260680 </v>
   <v>      -0.11024108       0.15090637      -0.21066756 </v>
   <v>      -0.08941005      -0.23307319       0.19546628 </v>
   <v>      -0.17143674       0.20536933      -0.47425432 </v>
   <v>       0.05572077      -0.06413912      -0.42657288 </v>
   <v>      -0.25712271       0.02219144      -0.20346980 </v>
   <v>      -0.25245737       0.02254870      -0.38762685 </v>
   <v>      -0.08276997       0.03548066      -0.46955585 </v>
   <v>       0.08297519       0.18318023      -0.06304660 </v>
   <v>       0.50176299      -0.08369204       0.46852439 </v>
   <v>      -0.27093310       0.07656377      -0.39216323 </v>
   <v>       0.08971642      -0.04720843      -0.22360707 </v>
   <v>       0.33438636       0.04141963       0.58321399 </v>
   <v>       0.13099736      -0.09932079       0.13515509 </v>
   <v>       0.26630853       0.06424631       0.85268588 </v>
   <v>       0.21606588       0.28848163      -0.08528860 </v>
   <v>      -0.25485948       0.20839489      -0.27217883 </v>
   <v>      -0.15831829      -0.25844727       0.06994918 </v>
   <v>       0.17285080      -0.31165032       0.37560839 </v>
   <v>       0.06616894      -0.25729622       0.40522159 </v>
  </varray>
  <varray name="stress" >
   <v>      50.28244050      -0.32439238      -0.02619819 </v>
   <v>      -0.32439230      53.91780185       0.46786210 </v>
   <v>      -0.02619822       0.46786195      56.22253618 </v>
  </varray>
  <energy>
   <i name="e_fr_energy">   -178.44281642 </i>
   <i name="e_wo_entrp">   -178.39262922 </i>
   <i name="e_0_energy">     -0.10037441 </i>
  </energy>
  <time name="totalsc">   34.13   34.18</time>
 </calculation>
 <calculation>
  <scstep>
   <time name="dav">    1.52    1.52</time>
   <time name="total">    1.62    1.62</time>
   <energy>
    <i name="alphaZ">    566.30413913 </i>
    <i name="ewald">  -5353.22099628 </i>
    <i name="hartreedc">   -605.87584899 </i>
    <i name="XCdc">   -768.31155349 </i>
    <i name="pawpsdc">   8002.46046664 </i>
    <i name="pawaedc">  -7201.96186647 </i>
    <i name="eentropy">     -0.10857012 </i>
    <i name="bandstr">    494.27183434 </i>
    <i name="atom">   4687.48422623 </i>
    <i name="e_fr_energy">   -178.95816901 </i>
    <i name="e_wo_entrp">   -178.84959889 </i>
    <i name="e_0_energy">   -178.90388395 </i>
   </energy>
  </scstep>
  <scstep>
   <time name="dav">    2.33    2.33</time>
   <time name="total">    2.43    2.43</time>
   <energy>
    <i name="e_fr_energy">   -189.95749094 </i>
    <i name="e_wo_entrp">   -189.83400211 </i>
    <i name="e_0_energy">   -189.89574652 </i>
   </energy>
  </scstep>
  <scstep>
   <time name="dav">    2.31    2.32</time>
   <time name="total">    2.42    2.42</time>
   <energy>
    <i name="e_fr_energy">   -178.47570304 </i>
    <i name="e_wo_entrp">   -178.37311559 </i>
    <i name="e_0_energy">   -178.42440931 </i>
   </energy>
  </scstep>
  <scstep>
   <time name="dav">    2.21    2.22</time>
   <time name="total">    2.32    2.32</time>
   <energy>
    <i name="e_fr_energy">   -178.84953480 </i>
    <i name="e_wo_entrp">   -178.74257904 </i>
    <i name="e_0_energy">   -178.79605692 </i>
   </energy>
  </scstep>
  <scstep>
   <time name="dav">    2.32    2.33</time>
   <time name="total">    2.43    2.43</time>
   <energy>
    <i name="e_fr_energy">   -178.70887319 </i>
    <i name="e_wo_entrp">   -178.60507964 </i>
    <i name="e_0_energy">   -178.65697642 </i>
   </energy>
  </scstep>
  <scstep>
   <time name="dav">    2.48    2.48</time>
   <time name="total">    2.58    2.59</time>
   <energy>
    <i name="e_fr_energy">   -178.72414080 </i>
    <i name="e_wo_entrp">   -178.61877019 </i>
    <i name="e_0_energy">   -178.67145550 </i>
   </energy>
  </scstep>
  <scstep>
   <time name="dav">    2.32    2.32</time>
   <time name="total">    2.41    2.42</time>
   <energy>
    <i name="e_fr_energy">   -178.69569664 </i>
    <i name="e_wo_entrp">   -178.59071173 </i>
    <i name="e_0_energy">   -178.64320418 </i>
   </energy>
  </scstep>
  <scstep>
   <time name="dav">    2.39    2.39</time>
   <time name="total">    2.49    2.49</time>
   <energy>
    <i name="e_fr_energy">   -178.68860442 </i>
    <i name="e_wo_entrp">   -178.58331314 </i>
    <i name="e_0_energy">   -178.63595878 </i>
   </energy>
  </scstep>
  <scstep>
   <time name="dav">    2.41    2.41</time>
   <time name="total">    2.51    2.51</time>
   <energy>
    <i name="e_fr_energy">   -178.68835289 </i>
    <i name="e_wo_entrp">   -178.58307133 </i>
    <i name="e_0_energy">   -178.63571211 </i>
   </energy>
  </scstep>
  <scstep>
   <time name="dav">    2.41    2.41</time>
   <time name="total">    2.51    2.51</time>
   <energy>
    <i name="e_fr_energy">   -178.68499540 </i>
    <i name="e_wo_entrp">   -178.57943277 </i>
    <i name="e_0_energy">   -178.63221408 </i>
   </energy>
  </scstep>
  <scstep>
   <time name="dav">    2.37    2.37</time>
   <time name="total">    2.47    2.47</time>
   <energy>
    <i name="e_fr_energy">   -178.68501067 </i>
    <i name="e_wo_entrp">   -178.57961758 </i>
    <i name="e_0_energy">   -178.63231413 </i>
   </energy>
  </scstep>
  <scstep>
   <time name="dav">    2.25    2.25</time>
   <time name="total">    2.35    2.37</time>
   <energy>
    <i name="e_fr_energy">   -178.68461279 </i>
    <i name="e_wo_entrp">   -178.57919397 </i>
    <i name="e_0_energy">   -178.63190338 </i>
   </energy>
  </scstep>
  <scstep>
   <time name="dav">    1.98    1.98</time>
   <time name="total">    2.08    2.08</time>
   <energy>
    <i name="e_fr_energy">   -178.68463411 </i>
    <i name="e_wo_entrp">   -178.57923223 </i>
    <i name="e_0_energy">   -178.63193317 </i>
   </energy>
  </scstep>
  <scstep>
   <time name="dav">    1.97    1.98</time>
   <time name="total">    2.08    2.08</time>
   <energy>
    <i name="e_fr_energy">   -178.68461118 </i>
    <i name="e_wo_entrp">   -178.57916159 </i>
    <i name="e_0_energy">   -178.63188638 </i>
   </energy>
  </scstep>
  <scstep>
   <time name="dav">    1.52    1.53</time>
   <time name="total">    1.57    1.58</time>
   <energy>
    <i name="alphaZ">    566.30413913 </i>
    <i name="ewald">  -5353.22099628 </i>
    <i name="hartreedc">   -618.33030570 </i>
    <i name="XCdc">   -768.02366319 </i>
    <i name="pawpsdc">   7769.11541492 </i>
    <i name="pawaedc">  -6967.00099198 </i>
    <i name="eentropy">     -0.10544311 </i>
    <i name="bandstr">    505.09300646 </i>
    <i name="atom">   4687.48422623 </i>
    <i name="e_fr_energy">   -178.68461352 </i>
    <i name="e_wo_entrp">   -178.57917041 </i>
    <i name="e_0_energy">   -178.63189197 </i>
   </energy>
  </scstep>
  <structure>
   <crystal>
    <varray name="basis" >
     <v>       6.40639253      -0.01566423       0.00449079 </v>
     <v>      -1.88070111       9.55175192       0.02287280 </v>
     <v>       0.00353945       0.00704770       4.13219275 </v>
    </varray>
    <i name="volume">    252.73528479 </i>
    <varray name="rec_basis" >
     <v>       0.15616940       0.03074957      -0.00018621 </v>
     <v>       0.00025623       0.10474372      -0.00017887 </v>
     <v>      -0.00017114      -0.00061320       0.24200346 </v>
    </varray>
   </crystal>
   <varray name="positions" >
    <v>       0.55763498       0.48284813       0.08897570 </v>
    <v>       0.95793649       0.58000244       0.06882262 </v>
    <v>       0.95278527       0.07577664       0.07461199 </v>
    <v>       0.16176576       0.37691023       0.12427509 </v>
    <v>       0.35601000       0.17726761       0.10500898 </v>
    <v>       0.76373475       0.27973500       0.12000419 </v>
    <v>       0.46676323       0.32618394       0.62686240 </v>
    <v>       0.05502084       0.22768957       0.61840635 </v>
    <v>       0.24758757       0.53129448       0.58506711 </v>
    <v>       0.25304072       0.02838658       0.56279853 </v>
    <v>       0.86275636       0.43239650       0.60501449 </v>
    <v>       0.84387566       0.92939024       0.54622695 </v>
    <v>       0.43109305       0.82433152       0.53612452 </v>
    <v>       0.64969194       0.62513436       0.55155611 </v>
    <v>       0.73199946       0.77621520       0.01843687 </v>
    <v>       0.14319120       0.87508918       0.03939269 </v>
    <v>       0.54810345       0.98098206       0.05880559 </v>
    <v>       0.65373211       0.12634983       0.58841326 </v>
    <v>       0.04429922       0.73128937       0.54196474 </v>
    <v>       0.34505496       0.68026510       0.04447282 </v>
   </varray>
  </structure>
  <varray name="forces" >
   <v>      -0.21489980      -0.21371269       0.22729882 </v>
   <v>       0.02609453       0.16043421       0.17734903 </v>
   <v>      -0.03001815      -0.05545555       0.24979776 </v>
   <v>      -0.18540067       0.02178886      -0.59616527 </v>
   <v>       0.00808921      -0.06621445      -0.10132374 </v>
   <v>      -0.24922240      -0.14997844      -0.24715637 </v>
   <v>      -0.31190800      -0.06462680      -0.50994160 </v>
   <v>      -0.10751354      -0.04802179      -0.32464487 </v>
   <v>       0.24259830       0.04677534       0.15119665 </v>
   <v>       0.28834321       0.14303401       0.23399234 </v>
   <v>      -0.28917195      -0.14628850      -0.30868882 </v>
   <v>       0.02635092      -0.18578884      -0.17860685 </v>
   <v>       0.30848870       0.00760933       0.26861366 </v>
   <v>       0.06125787       0.38337866       0.00150134 </v>
   <v>       0.13457782       0.23239241       0.62532160 </v>
   <v>       0.08701381       0.02990974       0.14460703 </v>
   <v>       0.05746225      -0.02040977      -0.15733852 </v>
   <v>      -0.02066141      -0.00078560       0.03244020 </v>
   <v>       0.14601442      -0.09057740       0.08276847 </v>
   <v>       0.02250488       0.01653727       0.22897912 </v>
  </varray>
  <varray name="stress" >
   <v>      -5.05515911      -0.14370528      -1.03480461 </v>
   <v>      -0.14370530       0.32908277      -1.41875955 </v>
   <v>      -1.03480483      -1.41875938       0.79472471 </v>
  </varray>
  <energy>
   <i name="e_fr_energy">   -178.68461352 </i>
   <i name="e_wo_entrp">   -178.63189197 </i>
   <i name="e_0_energy">     -0.10544311 </i>
  </energy>
  <time name="totalsc">   37.10   37.15</time>
 </calculation>
 <calculation>
  <scstep>
   <time name="dav">    1.47    1.47</time>
   <time name="total">    1.57    1.57</time>
   <energy>
    <i name="alphaZ">    563.98344093 </i>
    <i name="ewald">  -5345.76721465 </i>
    <i name="hartreedc">   -617.69666161 </i>
    <i name="XCdc">   -768.26549033 </i>
    <i name="pawpsdc">   7768.85713461 </i>
    <i name="pawaedc">  -6966.74307321 </i>
    <i name="eentropy">     -0.10697439 </i>
    <i name="bandstr">    499.55667151 </i>
    <i name="atom">   4687.48422623 </i>
    <i name="e_fr_energy">   -178.69794092 </i>
    <i name="e_wo_entrp">   -178.59096653 </i>
    <i name="e_0_energy">   -178.64445373 </i>
   </energy>
  </scstep>
  <scstep>
   <time name="dav">    2.40    2.40</time>
   <time name="total">    2.50    2.50</time>
   <energy>
    <i name="e_fr_energy">   -179.09918442 </i>
    <i name="e_wo_entrp">   -178.99396903 </i>
    <i name="e_0_energy">   -179.04657673 </i>
   </energy>
  </scstep>
  <scstep>
   <time name="dav">    2.42    2.42</time>
   <time name="total">    2.52    2.52</time>
   <energy>
    <i name="e_fr_energy">   -178.68680096 </i>
    <i name="e_wo_entrp">   -178.58113194 </i>
    <i name="e_0_energy">   -178.63396645 </i>
   </energy>
  </scstep>
  <scstep>
   <time name="dav">    2.02    2.02</time>
   <time name="total">    2.12    2.12</time>
   <energy>
    <i name="e_fr_energy">   -178.69295707 </i>
    <i name="e_wo_entrp">   -178.58574572 </i>
    <i name="e_0_energy">   -178.63935140 </i>
   </energy>
  </scstep>
  <scstep>
   <time name="dav">    2.21    2.21</time>
   <time name="total">    2.31    2.31</time>
   <energy>
    <i name="e_fr_energy">   -178.69067363 </i>
    <i name="e_wo_entrp">   -178.58460788 </i>
    <i name="e_0_energy">   -178.63764076 </i>
   </energy>
  </scstep>
  <scstep>
   <time name="dav">    2.31    2.31</time>
   <time name="total">    2.41    2.41</time>
   <energy>
    <i name="e_fr_energy">   -178.69099008 </i>
    <i name="e_wo_entrp">   -178.58494579 </i>
    <i name="e_0_energy">   -178.63796793 </i>
   </energy>
  </scstep>
  <scstep>
   <time name="dav">    2.37    2.38</time>
   <time name="total">    2.47    2.48</time>
   <energy>
    <i name="e_fr_energy">   -178.68998961 </i>
    <i name="e_wo_entrp">   -178.58377355 </i>
    <i name="e_0_energy">   -178.63688158 </i>
   </energy>
  </scstep>
  <scstep>
   <time name="dav">    2.41    2.41</time>
   <time name="total">    2.51    2.52</time>
   <energy>
    <i name="e_fr_energy">   -178.68981560 </i>
    <i name="e_wo_entrp">   -178.58358104 </i>
    <i name="e_0_energy">   -178.63669832 </i>
   </energy>
  </scstep>
  <scstep>
   <time name="dav">    2.31    2.32</time>
   <time name="total">    2.42    2.42</time>
[...]
       <r>    7.3097    0.0000 </r>
       <r>    7.4424    0.0000 </r>
       <r>    7.5101    0.0000 </r>
       <r>    7.5239    0.0000 </r>
       <r>    7.5527    0.0000 </r>
       <r>    7.6360    0.0000 </r>
       <r>    7.6854    0.0000 </r>
       <r>    7.7937    0.0000 </r>
      </set>
      <set comment="kpoint 8">
       <r>    1.5880    1.0000 </r>
       <r>    1.8932    1.0000 </r>
       <r>    1.9828    1.0000 </r>
       <r>    2.2748    1.0000 </r>
       <r>    2.9530    1.0000 </r>
       <r>    2.9857    1.0000 </r>
       <r>    3.3080    1.0000 </r>
       <r>    3.3964    1.0000 </r>
       <r>    3.5054    1.0000 </r>
       <r>    3.6095    1.0000 </r>
       <r>    3.6426    1.0000 </r>
       <r>    3.6703    1.0000 </r>
       <r>    3.7021    1.0000 </r>
       <r>    3.7965    1.0000 </r>
       <r>    3.8098    1.0000 </r>
       <r>    3.8336    1.0000 </r>
       <r>    3.8758    1.0000 </r>
       <r>    3.9569    1.0000 </r>
       <r>    4.0336    1.0000 </r>
       <r>    4.0724    1.0000 </r>
       <r>    4.0875    1.0000 </r>
       <r>    4.1157    1.0000 </r>
       <r>    4.6942    1.0000 </r>
       <r>    4.7658    1.0000 </r>
       <r>    4.8072    1.0000 </r>
       <r>    4.8470    1.0000 </r>
       <r>    4.9359    1.0000 </r>
       <r>    4.9962    1.0000 </r>
       <r>    5.1253    1.0000 </r>
       <r>    5.2120    1.0000 </r>
       <r>    5.2522    1.0000 </r>
       <r>    5.3006    1.0000 </r>
       <r>    5.3569    1.0000 </r>
       <r>    5.3711    1.0000 </r>
       <r>    5.3870    1.0000 </r>
       <r>    5.4287    1.0000 </r>
       <r>    5.4811    1.0000 </r>
       <r>    5.5380    1.0000 </r>
       <r>    5.5805    1.0000 </r>
       <r>    5.6208    1.0000 </r>
       <r>    5.7837    1.0000 </r>
       <r>    5.7885    1.0000 </r>
       <r>    5.8672    1.0000 </r>
       <r>    5.8837    1.0000 </r>
       <r>    5.9282    1.0000 </r>
       <r>    5.9765    1.0000 </r>
       <r>    6.0219    1.0000 </r>
       <r>    6.0770    1.0000 </r>
       <r>    6.1795    1.0000 </r>
       <r>    6.2508    1.0000 </r>
       <r>    6.3754    0.9945 </r>
       <r>    6.4039    0.9839 </r>
       <r>    6.4694    0.8878 </r>
       <r>    6.5150    0.7154 </r>
       <r>    6.5894    0.3144 </r>
       <r>    6.6889    0.0293 </r>
       <r>    6.7458    0.0035 </r>
       <r>    6.7597    0.0019 </r>
       <r>    6.9104    0.0000 </r>
       <r>    6.9859    0.0000 </r>
       <r>    7.1309    0.0000 </r>
       <r>    7.1653    0.0000 </r>
       <r>    7.3436    0.0000 </r>
       <r>    7.3776    0.0000 </r>
       <r>    7.5102    0.0000 </r>
       <r>    7.5275    0.0000 </r>
       <r>    7.5979    0.0000 </r>
       <r>    7.6654    0.0000 </r>
      </set>
     </set>
    </set>
   </array>
  </eigenvalues>
  <separator name="orbital magnetization" >
   <v name="MAGDIPOLOUT">      0.00000000      0.00000000      0.00000000</v>
  </separator>
  <dos>
   <i name="efermi">      6.55524254 </i>
   <total>
    <array>
     <dimension dim="1">gridpoints</dimension>
     <dimension dim="2">spin</dimension>
     <field>energy</field>
     <field>total</field>
     <field>integrated</field>
     <set>
      <set comment="spin 1">
       <r>    -1.4274     0.0000     0.0000 </r>
       <r>    -1.3926     0.0000     0.0000 </r>
       <r>    -1.3578     0.0000     0.0000 </r>
       <r>    -1.3230     0.0000     0.0000 </r>
       <r>    -1.2883     0.0000     0.0000 </r>
       <r>    -1.2535     0.0000     0.0000 </r>
       <r>    -1.2187     0.0000     0.0000 </r>
       <r>    -1.1839     0.0000     0.0000 </r>
       <r>    -1.1491     0.0000     0.0000 </r>
       <r>    -1.1143     0.0000     0.0000 </r>
       <r>    -1.0795     0.0000     0.0000 </r>
       <r>    -1.0448     0.0000     0.0000 </r>
       <r>    -1.0100     0.0000     0.0000 </r>
       <r>    -0.9752     0.0000     0.0000 </r>
       <r>    -0.9404     0.0000     0.0000 </r>
       <r>    -0.9056     0.0000     0.0000 </r>
       <r>    -0.8708     0.0000     0.0000 </r>
       <r>    -0.8361     0.0000     0.0000 </r>
       <r>    -0.8013     0.0000     0.0000 </r>
       <r>    -0.7665     0.0000     0.0000 </r>
       <r>    -0.7317     0.0000     0.0000 </r>
       <r>    -0.6969     0.0003     0.0000 </r>
       <r>    -0.6621     0.0018     0.0001 </r>
       <r>    -0.6273     0.0091     0.0004 </r>
       <r>    -0.5926     0.0355     0.0016 </r>
       <r>    -0.5578     0.1095     0.0054 </r>
       <r>    -0.5230     0.2664     0.0147 </r>
       <r>    -0.4882     0.5112     0.0325 </r>
       <r>    -0.4534     0.7739     0.0594 </r>
       <r>    -0.4186     0.9242     0.0916 </r>
       <r>    -0.3838     0.8706     0.1218 </r>
       <r>    -0.3491     0.6470     0.1443 </r>
       <r>    -0.3143     0.3800     0.1576 </r>
       <r>    -0.2795     0.1799     0.1638 </r>
       <r>    -0.2447     0.0836     0.1667 </r>
       <r>    -0.2099     0.0860     0.1697 </r>
       <r>    -0.1751     0.1874     0.1762 </r>
       <r>    -0.1404     0.3924     0.1899 </r>
       <r>    -0.1056     0.6604     0.2129 </r>
       <r>    -0.0708     0.8783     0.2434 </r>
       <r>    -0.0360     0.9227     0.2755 </r>
       <r>    -0.0012     0.7702     0.3023 </r>
       <r>     0.0336     0.5291     0.3207 </r>
       <r>     0.0684     0.3554     0.3331 </r>
       <r>     0.1031     0.3509     0.3453 </r>
       <r>     0.1379     0.5180     0.3633 </r>
       <r>     0.1727     0.7594     0.3897 </r>
       <r>     0.2075     0.9195     0.4217 </r>
       <r>     0.2423     0.8852     0.4525 </r>
       <r>     0.2771     0.6731     0.4759 </r>
       <r>     0.3118     0.4042     0.4900 </r>
       <r>     0.3466     0.1934     0.4967 </r>
       <r>     0.3814     0.0828     0.4996 </r>
       <r>     0.4162     0.0655     0.5018 </r>
       <r>     0.4510     0.1442     0.5069 </r>
       <r>     0.4858     0.3580     0.5193 </r>
       <r>     0.5206     0.7649     0.5459 </r>
       <r>     0.5553     1.4043     0.5948 </r>
       <r>     0.5901     2.2537     0.6732 </r>
       <r>     0.6249     3.1717     0.7835 </r>
       <r>     0.6597     3.8594     0.9177 </r>
       <r>     0.6945     3.9715     1.0559 </r>
       <r>     0.7293     3.3889     1.1738 </r>
       <r>     0.7641     2.3770     1.2564 </r>
       <r>     0.7988     1.4114     1.3055 </r>
       <r>     0.8336     0.8707     1.3358 </r>
       <r>     0.8684     0.9006     1.3672 </r>
       <r>     0.9032     1.4321     1.4170 </r>
       <r>     0.9380     2.1858     1.4930 </r>
       <r>     0.9728     2.7246     1.5878 </r>
       <r>     1.0075     2.7033     1.6818 </r>
       <r>     1.0423     2.1556     1.7568 </r>
       <r>     1.0771     1.4865     1.8085 </r>
       <r>     1.1119     1.1711     1.8492 </r>
       <r>     1.1467     1.4673     1.9003 </r>
       <r>     1.1815     2.2884     1.9799 </r>
       <r>     1.2163     3.2080     2.0915 </r>
       <r>     1.2510     3.6625     2.2189 </r>
       <r>     1.2858     3.3475     2.3353 </r>
       <r>     1.3206     2.4749     2.4214 </r>
       <r>     1.3554     1.6038     2.4772 </r>
       <r>     1.3902     1.2479     2.5206 </r>
       <r>     1.4250     1.6354     2.5775 </r>
       <r>     1.4597     2.6664     2.6702 </r>
       <r>     1.4945     3.9539     2.8078 </r>
       <r>     1.5293     4.9923     2.9814 </r>
       <r>     1.5641     5.4418     3.1707 </r>
       <r>     1.5989     5.2745     3.3542 </r>
       <r>     1.6337     4.6492     3.5159 </r>
       <r>     1.6685     3.7467     3.6462 </r>
       <r>     1.7032     2.7747     3.7428 </r>
       <r>     1.7380     2.0174     3.8129 </r>
       <r>     1.7728     1.7474     3.8737 </r>
       <r>     1.8076     2.0626     3.9455 </r>
       <r>     1.8424     2.8254     4.0437 </r>
       <r>     1.8772     3.7474     4.1741 </r>
       <r>     1.9120     4.5388     4.3320 </r>
       <r>     1.9467     5.0157     4.5065 </r>
       <r>     1.9815     5.0872     4.6834 </r>
       <r>     2.0163     4.6900     4.8466 </r>
       <r>     2.0511     3.8300     4.9798 </r>
       <r>     2.0859     2.7016     5.0738 </r>
       <r>     2.1207     1.6678     5.1318 </r>
       <r>     2.1554     1.0681     5.1689 </r>
       <r>     2.1902     1.0568     5.2057 </r>
       <r>     2.2250     1.5764     5.2605 </r>
       <r>     2.2598     2.4040     5.3441 </r>
       <r>     2.2946     3.2395     5.4568 </r>
       <r>     2.3294     3.8359     5.5903 </r>
       <r>     2.3642     4.0926     5.7326 </r>
       <r>     2.3989     4.0549     5.8737 </r>
       <r>     2.4337     3.8886     6.0089 </r>
       <r>     2.4685     3.8586     6.1432 </r>
       <r>     2.5033     4.2027     6.2893 </r>
       <r>     2.5381     4.8990     6.4598 </r>
       <r>     2.5729     5.5914     6.6543 </r>
       <r>     2.6077     5.8460     6.8576 </r>
       <r>     2.6424     5.4941     7.0487 </r>
       <r>     2.6772     4.7317     7.2133 </r>
       <r>     2.7120     3.9519     7.3508 </r>
       <r>     2.7468     3.5138     7.4730 </r>
       <r>     2.7816     3.6413     7.5997 </r>
       <r>     2.8164     4.4734     7.7553 </r>
       <r>     2.8511     6.0886     7.9671 </r>
       <r>     2.8859     8.3832     8.2587 </r>
       <r>     2.9207    10.9591     8.6399 </r>
       <r>     2.9555    13.2689     9.1014 </r>
       <r>     2.9903    14.9721     9.6222 </r>
       <r>     3.0251    16.1089    10.1826 </r>
       <r>     3.0599    16.8602    10.7691 </r>
       <r>     3.0946    17.2405    11.3688 </r>
       <r>     3.1294    17.1517    11.9654 </r>
       <r>     3.1642    16.6459    12.5444 </r>
       <r>     3.1990    15.9849    13.1005 </r>
       <r>     3.2338    15.4764    13.6388 </r>
       <r>     3.2686    15.3138    14.1715 </r>
       <r>     3.3033    15.5176    14.7113 </r>
       <r>     3.3381    15.9963    15.2677 </r>
       <r>     3.3729    16.7010    15.8486 </r>
       <r>     3.4077    17.7125    16.4648 </r>
       <r>     3.4425    19.1327    17.1303 </r>
       <r>     3.4773    20.8920    17.8570 </r>
       <r>     3.5121    22.7095    18.6470 </r>
       <r>     3.5468    24.2645    19.4910 </r>
       <r>     3.5816    25.3856    20.3740 </r>
       <r>     3.6164    26.1282    21.2829 </r>
       <r>     3.6512    26.7652    22.2139 </r>
       <r>     3.6860    27.6367    23.1753 </r>
       <r>     3.7208    28.8735    24.1796 </r>
       <r>     3.7556    30.3078    25.2339 </r>
       <r>     3.7903    31.6845    26.3360 </r>
       <r>     3.8251    32.8628    27.4792 </r>
       <r>     3.8599    33.7901    28.6545 </r>
       <r>     3.8947    34.3580    29.8497 </r>
       <r>     3.9295    34.3247    31.0437 </r>
       <r>     3.9643    33.4766    32.2081 </r>
       <r>     3.9990    31.9644    33.3200 </r>
       <r>     4.0338    30.3690    34.3764 </r>
       <r>     4.0686    29.2150    35.3926 </r>
       <r>     4.1034    28.3840    36.3800 </r>
       <r>     4.1382    27.1947    37.3259 </r>
       <r>     4.1730    25.1603    38.2011 </r>
       <r>     4.2078    22.5357    38.9850 </r>
       <r>     4.2425    20.0266    39.6817 </r>
       <r>     4.2773    18.1449    40.3128 </r>
       <r>     4.3121    16.9845    40.9036 </r>
       <r>     4.3469    16.3888    41.4737 </r>
       <r>     4.3817    16.0507    42.0320 </r>
       <r>     4.4165    15.5482    42.5729 </r>
       <r>     4.4512    14.6131    43.0812 </r>
       <r>     4.4860    13.5397    43.5522 </r>
       <r>     4.5208    13.2330    44.0125 </r>
       <r>     4.5556    14.6304    44.5214 </r>
       <r>     4.5904    17.9371    45.1453 </r>
       <r>     4.6252    22.4392    45.9259 </r>
       <r>     4.6600    27.0394    46.8665 </r>
       <r>     4.6947    30.9146    47.9418 </r>
       <r>     4.7295    33.8069    49.1178 </r>
       <r>     4.7643    35.9500    50.3683 </r>
       <r>     4.7991    37.7078    51.6800 </r>
       <r>     4.8339    39.0786    53.0393 </r>
       <r>     4.8687    39.5348    54.4145 </r>
       <r>     4.9035    38.5201    55.7544 </r>
       <r>     4.9382    36.1433    57.0117 </r>
       <r>     4.9730    33.2493    58.1683 </r>
       <r>     5.0078    30.7431    59.2376 </r>
       <r>     5.0426    28.9733    60.2455 </r>
       <r>     5.0774    27.8650    61.2148 </r>
       <r>     5.1122    27.4676    62.1702 </r>
       <r>     5.1469    28.1099    63.1480 </r>
       <r>     5.1817    29.9798    64.1909 </r>
       <r>     5.2165    32.6901    65.3280 </r>
       <r>     5.2513    35.4158    66.5599 </r>
       <r>     5.2861    37.4993    67.8643 </r>
       <r>     5.3209    38.7794    69.2133 </r>
       <r>     5.3557    39.2971    70.5802 </r>
       <r>     5.3904    38.9955    71.9367 </r>
       <r>     5.4252    37.9415    73.2565 </r>
       <r>     5.4600    36.6182    74.5302 </r>
       <r>     5.4948    35.6574    75.7706 </r>
       <r>     5.5296    35.2128    76.9954 </r>
       <r>     5.5644    34.7096    78.2028 </r>
       <r>     5.5992    33.3539    79.3630 </r>
       <r>     5.6339    31.0024    80.4414 </r>
       <r>     5.6687    28.5321    81.4339 </r>
       <r>     5.7035    27.2599    82.3821 </r>
       <r>     5.7383    27.8764    83.3518 </r>
       <r>     5.7731    29.8327    84.3895 </r>
       <r>     5.8079    31.7725    85.4948 </r>
       <r>     5.8426    32.6958    86.6321 </r>
       <r>     5.8774    32.7617    87.7717 </r>
       <r>     5.9122    32.9512    88.9179 </r>
       <r>     5.9470    34.0178    90.1012 </r>
       <r>     5.9818    35.7998    91.3465 </r>
       <r>     6.0166    37.4574    92.6494 </r>
       <r>     6.0514    38.2816    93.9811 </r>
       <r>     6.0861    38.2509    95.3116 </r>
       <r>     6.1209    37.8219    96.6272 </r>
       <r>     6.1557    37.2613    97.9234 </r>
       <r>     6.1905    36.3093    99.1864 </r>
       <r>     6.2253    34.5466   100.3881 </r>
       <r>     6.2601    32.0413   101.5026 </r>
       <r>     6.2948    29.5201   102.5295 </r>
       <r>     6.3296    27.7750   103.4956 </r>
       <r>     6.3644    26.9049   104.4315 </r>
       <r>     6.3992    26.3171   105.3470 </r>
       <r>     6.4340    25.4772   106.2332 </r>
       <r>     6.4688    24.3651   107.0807 </r>
       <r>     6.5036    23.1647   107.8865 </r>
       <r>     6.5383    21.8856   108.6478 </r>
       <r>     6.5731    20.4594   109.3595 </r>
       <r>     6.6079    19.0198   110.0211 </r>
       <r>     6.6427    17.8948   110.6435 </r>
       <r>     6.6775    17.1755   111.2410 </r>
       <r>     6.7123    16.3292   111.8090 </r>
       <r>     6.7471    14.5685   112.3158 </r>
       <r>     6.7818    11.7786   112.7255 </r>
       <r>     6.8166     8.8744   113.0342 </r>
       <r>     6.8514     7.1246   113.2820 </r>
       <r>     6.8862     7.2246   113.5333 </r>
       <r>     6.9210     8.9542   113.8448 </r>
       <r>     6.9558    11.4403   114.2427 </r>
       <r>     6.9905    13.6972   114.7192 </r>
       <r>     7.0253    15.2082   115.2482 </r>
       <r>     7.0601    16.2193   115.8124 </r>
       <r>     7.0949    17.4317   116.4187 </r>
       <r>     7.1297    19.3287   117.0911 </r>
       <r>     7.1645    21.7768   117.8486 </r>
       <r>     7.1993    24.1922   118.6901 </r>
       <r>     7.2340    26.0220   119.5953 </r>
       <r>     7.2688    27.0898   120.5376 </r>
       <r>     7.3036    27.5150   121.4947 </r>
       <r>     7.3384    27.4143   122.4483 </r>
       <r>     7.3732    26.9358   123.3853 </r>
       <r>     7.4080    26.6223   124.3113 </r>
       <r>     7.4427    27.3323   125.2621 </r>
       <r>     7.4775    29.3872   126.2843 </r>
       <r>     7.5123    31.8728   127.3930 </r>
       <r>     7.5471    33.2216   128.5486 </r>
       <r>     7.5819    32.6854   129.6856 </r>
       <r>     7.6167    30.9293   130.7614 </r>
       <r>     7.6515    28.9680   131.7691 </r>
       <r>     7.6862    26.9210   132.7055 </r>
       <r>     7.7210    24.1546   133.5457 </r>
       <r>     7.7558    20.2851   134.2513 </r>
       <r>     7.7906    15.6578   134.7960 </r>
       <r>     7.8254    11.0578   135.1806 </r>
       <r>     7.8602     7.2414   135.4325 </r>
       <r>     7.8950     4.6230   135.5934 </r>
       <r>     7.9297     3.1619   135.7033 </r>
       <r>     7.9645     2.4701   135.7893 </r>
       <r>     7.9993     2.0728   135.8614 </r>
       <r>     8.0341     1.6556   135.9190 </r>
       <r>     8.0689     1.1557   135.9592 </r>
       <r>     8.1037     0.6752   135.9826 </r>
       <r>     8.1384     0.3231   135.9939 </r>
       <r>     8.1732     0.1251   135.9982 </r>
       <r>     8.2080     0.0389   135.9996 </r>
       <r>     8.2428     0.0097   135.9999 </r>
       <r>     8.2776     0.0019   136.0000 </r>
       <r>     8.3124     0.0003   136.0000 </r>
       <r>     8.3472     0.0000   136.0000 </r>
       <r>     8.3819     0.0000   136.0000 </r>
       <r>     8.4167     0.0000   136.0000 </r>
       <r>     8.4515     0.0000   136.0000 </r>
       <r>     8.4863     0.0000   136.0000 </r>
       <r>     8.5211     0.0000   136.0000 </r>
       <r>     8.5559     0.0000   136.0000 </r>
       <r>     8.5907     0.0000   136.0000 </r>
       <r>     8.6254     0.0000   136.0000 </r>
       <r>     8.6602     0.0000   136.0000 </r>
       <r>     8.6950     0.0000   136.0000 </r>
       <r>     8.7298     0.0000   136.0000 </r>
       <r>     8.7646     0.0000   136.0000 </r>
       <r>     8.7994     0.0000   136.0000 </r>
       <r>     8.8341     0.0000   136.0000 </r>
       <r>     8.8689     0.0000   136.0000 </r>
       <r>     8.9037     0.0000   136.0000 </r>
       <r>     8.9385     0.0000   136.0000 </r>
       <r>     8.9733     0.0000   136.0000 </r>
       <r>     9.0081     0.0000   136.0000 </r>
      </set>
     </set>
    </array>
   </total>
  </dos>
 </calculation>
 <structure name="finalpos" >
  <crystal>
   <varray name="basis" >
    <v>       6.37388249       0.02908009      -0.00044783 </v>
    <v>      -1.80405678       9.54334782       0.00166364 </v>
    <v>       0.00033703      -0.00270960       4.13986319 </v>
   </varray>
   <i name="volume">    252.03754737 </i>
   <varray name="rec_basis" >
    <v>       0.15675505       0.02963268       0.00000663 </v>
    <v>      -0.00047765       0.10469472       0.00006856 </v>
    <v>       0.00001715      -0.00003887       0.24155385 </v>
   </varray>
  </crystal>
  <varray name="positions" >
   <v>       0.54739175       0.48155580       0.07620848 </v>
   <v>       0.95687747       0.58121623       0.07619934 </v>
   <v>       0.95457306       0.07523900       0.07442381 </v>
   <v>       0.14906687       0.37856260       0.07566263 </v>
   <v>       0.34910152       0.17765543       0.07486451 </v>
   <v>       0.74932868       0.27784166       0.07543734 </v>
   <v>       0.45138472       0.32677796       0.57564732 </v>
   <v>       0.04400028       0.22829931       0.57500763 </v>
   <v>       0.24763748       0.53174587       0.57617246 </v>
   <v>       0.26110274       0.02928317       0.57437460 </v>
   <v>       0.84939623       0.43129166       0.57585493 </v>
   <v>       0.85428647       0.92678507       0.57451241 </v>
   <v>       0.44598895       0.82391774       0.57484425 </v>
   <v>       0.65523651       0.62913568       0.57618804 </v>
   <v>       0.74493794       0.77755593       0.07521429 </v>
   <v>       0.15504209       0.87523873       0.07461785 </v>
   <v>       0.55546218       0.97961533       0.07458918 </v>
   <v>       0.65059783       0.12554425       0.57463070 </v>
   <v>       0.05387401       0.73033325       0.57528740 </v>
   <v>       0.35079021       0.67994333       0.07550384 </v>
  </varray>
 </structure>
</modeling>
