unknown system                          
           1
     6.367622    0.000000    0.000000
    -1.845543    9.655124    0.000000
     0.000813   -0.003523    4.213912
   V    Fe
  17   3
Direct configuration=     1
   0.56810500  0.47433500  0.12407300
   0.96527500  0.57480200  0.12533600
   0.94955000  0.06840300  0.12533700
   0.16293700  0.37254200  0.12329400
   0.36455800  0.16720400  0.12409400
   0.75564700  0.26746100  0.12349000
   0.46432300  0.31953100  0.62344500
   0.05521100  0.22079900  0.62350800
   0.27215900  0.52524700  0.62462400
   0.26743900  0.02616400  0.62606400
   0.86055100  0.42785200  0.62360000
   0.83768700  0.93584400  0.50191000
   0.42846400  0.83612500  0.50180700
   0.64110400  0.63968300  0.50137600
   0.73024600  0.78827600  0.00174500
   0.13751800  0.88563000  0.00186500
   0.53562200  0.98606200  0.00182900
   0.66295900  0.12727300  0.62472400
   0.03491000  0.73738300  0.50163600
   0.33181200  0.68692200  0.00148400
unknown system                          
           1
     6.406229   -0.015527   -0.008900
    -1.880275    9.611043    0.003131
    -0.005063   -0.003267    4.180368
   V    Fe
  17   3
Direct configuration=     2
   0.56425100  0.47543363  0.11111944
   0.96465737  0.57705885  0.10957848
   0.95304545  0.07494349  0.10379994
   0.16363353  0.37184980  0.12530019
   0.36120957  0.17223048  0.12802152
   0.76000676  0.27084604  0.12321506
   0.46530451  0.32120485  0.62553495
   0.05577700  0.22310491  0.62914742
   0.26295122  0.52623661  0.61281790
   0.25538536  0.03100297  0.58704874
   0.86171524  0.42736260  0.62071414
   0.83713252  0.93074166  0.52175582
   0.42770077  0.83017390  0.50386631
   0.64473000  0.63906723  0.51873649
   0.72813161  0.78414660 -0.00324655
   0.13437928  0.87648285  0.02312755
   0.54696611  0.98016712  0.03365187
   0.66342130  0.13136524  0.60739124
   0.03815587  0.73711919  0.51044782
   0.33752254  0.68700001  0.01321268
unknown system                          
           1
     6.425311   -0.023201   -0.013298
    -1.897442    9.589256    0.004679
    -0.007967   -0.003140    4.163788
   V    Fe
  17   3
Direct configuration=     3
   0.56235454  0.47597620  0.10466129
   0.96435422  0.57817911  0.10172631
   0.95477561  0.07819402  0.09307103
   0.16397448  0.37150664  0.12630069
   0.35958240  0.17472354  0.12997295
   0.76216082  0.27253026  0.12308140
   0.46579348  0.32203671  0.62657661
   0.05606546  0.22425023  0.63195684
   0.25842348  0.52672079  0.60692589
   0.24945942  0.03339649  0.56759622
   0.86228452  0.42712055  0.61927774
   0.83685191  0.92820757  0.53164467
   0.42730665  0.82721841  0.50489368
   0.64651802  0.63876418  0.52738983
   0.72707629  0.78209462 -0.00573414
   0.13281560  0.87193834  0.03372101
   0.55253652  0.97724882  0.04952065
   0.66365436  0.13339770  0.59875472
   0.03975434  0.73699068  0.51484153
   0.34033489  0.68704314  0.01906207
unknown system                          
           1
     6.381873   -0.019336   -0.004906
    -1.879088    9.516339    0.012654
    -0.002543    0.001425    4.123990
   V    Fe
  17   3
Direct configuration=     4
   0.56072042  0.47908830  0.09696249
   0.96153393  0.57879995  0.08715504
   0.95413954  0.07740961  0.08383152
   0.16323453  0.37371811  0.12697012
   0.35781870  0.17599641  0.11982212
   0.76344810  0.27584947  0.12234797
   0.46678992  0.32393368  0.62802695
   0.05574250  0.22579577  0.62725595
   0.25311321  0.52857372  0.59698288
   0.25005944  0.03118691  0.56377748
   0.86306200  0.42946090  0.61398638
   0.83994987  0.92882966  0.53918035
   0.42832639  0.82581874  0.51742316
   0.64775578  0.63257434  0.53814933
   0.72876120  0.77926900  0.00260223
   0.13704869  0.87298099  0.03665340
   0.55094576  0.97868085  0.05475661
   0.65949048  0.13049742  0.59370310
   0.04163248  0.73480105  0.52616459
   0.34250406  0.68427309  0.02948935
unknown system                          
           1
     6.357316   -0.017151   -0.000161
    -1.868711    9.475115    0.017162
     0.000524    0.004005    4.101490
   V    Fe
  17   3
Direct configuration=     5
   0.55979358  0.48086371  0.09256631
   0.95993671  0.57915824  0.07884004
   0.95378296  0.07696540  0.07855904
   0.16281225  0.37497795  0.12735064
   0.35682013  0.17672472  0.11402846
   0.76417999  0.27774032  0.12192416
   0.46735556  0.32501376  0.62885159
   0.05556077  0.22667761  0.62457125
   0.25009581  0.52963322  0.59131127
   0.25040385  0.02992904  0.56159943
   0.86350663  0.43079545  0.61096250
   0.84170862  0.92918132  0.54347761
   0.42890026  0.82501772  0.52457558
   0.64845641  0.62904483  0.54429648
   0.72971649  0.77765662  0.00736198
   0.13945592  0.87357325  0.03832125
   0.55003696  0.97949559  0.05774562
   0.65712448  0.12884746  0.59082753
   0.04269584  0.73355013  0.53262826
   0.34373377  0.68269168  0.03544200
unknown system                          
           1
     6.406393   -0.015664    0.004491
    -1.880701    9.551752    0.022873
     0.003539    0.007048    4.132193
   V    Fe
  17   3
Direct configuration=     6
   0.55763498  0.48284813  0.08897570
   0.95793649  0.58000244  0.06882262
   0.95278527  0.07577664  0.07461199
   0.16176576  0.37691023  0.12427509
   0.35601000  0.17726761  0.10500898
   0.76373475  0.27973500  0.12000419
   0.46676323  0.32618394  0.62686240
   0.05502084  0.22768957  0.61840635
   0.24758757  0.53129448  0.58506711
   0.25304072  0.02838658  0.56279853
   0.86275636  0.43239650  0.60501449
   0.84387566  0.92939024  0.54622695
   0.43109305  0.82433152  0.53612452
   0.64969194  0.62513436  0.55155611
   0.73199946  0.77621520  0.01843687
   0.14319120  0.87508918  0.03939269
   0.54810345  0.98098206  0.05880559
   0.65373211  0.12634983  0.58841326
   0.04429922  0.73128937  0.54196474
   0.34505496  0.68026510  0.04447282
unknown system                          
           1
     6.415100   -0.015400    0.005316
    -1.882828    9.565349    0.023886
     0.004074    0.007588    4.137640
   V    Fe
  17   3
Direct configuration=     7
   0.55725513  0.48319766  0.08834331
   0.95758525  0.58015164  0.06705864
   0.95261011  0.07556767  0.07391735
   0.16158165  0.37725053  0.12373320
   0.35586821  0.17736369  0.10342059
   0.76365639  0.28008619  0.11966568
   0.46665904  0.32639003  0.62651193
   0.05492630  0.22786804  0.61732052
   0.24714645  0.53158729  0.58396756
   0.25350498  0.02811496  0.56300955
   0.86262472  0.43267865  0.60396675
   0.84425690  0.92942679  0.54671066
   0.43147803  0.82421004  0.53815813
   0.64990908  0.62444566  0.55283529
   0.73240043  0.77596082  0.02038716
   0.14384859  0.87535582  0.03958029
   0.54776280  0.98124368  0.05899229
   0.65313530  0.12591047  0.58798934
   0.04458078  0.73089090  0.54360921
   0.34528688  0.67983747  0.04606355
unknown system                          
           1
     6.403984   -0.015092    0.004400
    -1.879114    9.562497    0.021756
     0.003476    0.006551    4.136134
   V    Fe
  17   3
Direct configuration=     8
   0.55558434  0.48275251  0.08947164
   0.95757833  0.58084756  0.06687870
   0.95227194  0.07522574  0.07507037
   0.16046309  0.37761529  0.11851570
   0.35564884  0.17724839  0.10126766
   0.76219218  0.27989753  0.11738860
   0.46491813  0.32636917  0.62214339
   0.05423192  0.22786258  0.61382335
   0.24799185  0.53199589  0.58410337
   0.25542012  0.02837272  0.56471934
   0.86088482  0.43240374  0.60058231
   0.84455560  0.92879925  0.54598729
   0.43340160  0.82409297  0.54209331
   0.65080349  0.62517940  0.55408093
   0.73365339  0.77652390  0.02700220
   0.14489278  0.87562546  0.04114854
   0.54785145  0.98134531  0.05817256
   0.65250396  0.12553544  0.58770537
   0.04553877  0.73028031  0.54573641
   0.34569040  0.67956482  0.04934995
unknown system                          
           1
     6.370634   -0.014165    0.001653
    -1.867970    9.553941    0.015364
     0.001680    0.003442    4.131613
   V    Fe
  17   3
Direct configuration=     9
   0.55056440  0.48141718  0.09285605
   0.95755645  0.58293589  0.06633975
   0.95125662  0.07420005  0.07852992
   0.15709914  0.37870830  0.10285734
   0.35498896  0.17690169  0.09480622
   0.75779139  0.27933078  0.11055363
   0.45968478  0.32630532  0.60903185
   0.05214389  0.22784514  0.60332757
   0.25053189  0.53322201  0.58451214
   0.26117573  0.02914661  0.56985223
   0.85565526  0.43157785  0.59042373
   0.84545390  0.92691582  0.54381560
   0.43918392  0.82374276  0.55390423
   0.65349072  0.62738162  0.55782093
   0.73742041  0.77821568  0.04685621
   0.14803095  0.87643503  0.04585613
   0.54811740  0.98165003  0.05571269
   0.65060712  0.12440998  0.58685215
   0.04841939  0.72844860  0.55212003
   0.34690469  0.67874765  0.05921260
unknown system                          
           1
     6.385207   -0.004339    0.003980
    -1.857450    9.576529    0.012468
     0.003194    0.002483    4.139772
   V    Fe
  17   3
Direct configuration=    10
   0.54965092  0.48097030  0.09139054
   0.95716913  0.58258353  0.06953092
   0.95198505  0.07456806  0.07847009
   0.15442385  0.37859742  0.09605342
   0.35351484  0.17717056  0.09351113
   0.75522356  0.27841019  0.10450757
   0.45688090  0.32625616  0.60266891
   0.05003739  0.22758701  0.59885075
   0.25083781  0.53250086  0.58418742
   0.26128416  0.02928399  0.56900806
   0.85377564  0.43124303  0.58762666
   0.84748708  0.92658814  0.54768413
   0.44113576  0.82400926  0.55559707
   0.65450078  0.62874320  0.56285977
   0.73931640  0.77885045  0.05095169
   0.14943927  0.87637982  0.05125102
   0.55010231  0.98054043  0.05858054
   0.65106983  0.12498636  0.58504699
   0.05023121  0.72883561  0.55419688
   0.34801111  0.67943361  0.06326745
unknown system                          
           1
     6.397920    0.004233    0.006009
    -1.848273    9.596233    0.009941
     0.004514    0.001645    4.146889
   V    Fe
  17   3
Direct configuration=    11
   0.54885728  0.48058207  0.09011478
   0.95683226  0.58227751  0.07230924
   0.95261812  0.07488768  0.07841787
   0.15209753  0.37850271  0.09013092
   0.35223188  0.17740576  0.09238447
   0.75299224  0.27761078  0.09924432
   0.45444249  0.32621533  0.59713043
   0.04820586  0.22736385  0.59495392
   0.25110553  0.53187294  0.58390411
   0.26137837  0.02940337  0.56827313
   0.85214136  0.43095307  0.58519213
   0.84925612  0.92630149  0.55105103
   0.44283321  0.82423960  0.55707013
   0.65537596  0.62992772  0.56724711
   0.74096409  0.77940155  0.05451684
   0.15066379  0.87633098  0.05594728
   0.55183113  0.97957321  0.06107575
   0.65147159  0.12548741  0.58347548
   0.05180652  0.72917099  0.55600442
   0.34897168  0.68002997  0.06679764
unknown system                          
           1
     6.379414    0.014059    0.008879
    -1.828161    9.562013    0.008804
     0.006377    0.001531    4.132809
   V    Fe
  17   3
Direct configuration=    12
   0.54857718  0.48063680  0.08793159
   0.95663213  0.58174065  0.07521845
   0.95347882  0.07522987  0.07758682
   0.15004607  0.37830190  0.08615134
   0.35072134  0.17758547  0.09048461
   0.75092794  0.27698761  0.09378028
   0.45252030  0.32626506  0.59250318
   0.04624635  0.22729896  0.59120336
   0.25064295  0.53130994  0.58296402
   0.26096278  0.02939505  0.56794868
   0.85098657  0.43089538  0.58375475
   0.85146305  0.92650047  0.55570948
   0.44397836  0.82438548  0.55841501
   0.65601478  0.63046592  0.57143822
   0.74249961  0.77941228  0.05676948
   0.15216329  0.87611309  0.06010814
   0.55351784  0.97890408  0.06376461
   0.65178146  0.12591529  0.58164133
   0.05306885  0.72970113  0.55845612
   0.34984734  0.68049358  0.06941153
unknown system                          
           1
     6.375077    0.016362    0.009551
    -1.823447    9.553992    0.008538
     0.006814    0.001504    4.129509
   V    Fe
  17   3
Direct configuration=    13
   0.54851148  0.48064974  0.08741823
   0.95658517  0.58161444  0.07590260
   0.95368095  0.07531015  0.07739127
   0.14956440  0.37825515  0.08521581
   0.35036643  0.17762810  0.09003809
   0.75044356  0.27684152  0.09249562
   0.45206893  0.32627721  0.59141532
   0.04578620  0.22728416  0.59032168
   0.25053459  0.53117763  0.58274298
   0.26086515  0.02939319  0.56787245
   0.85071534  0.43088209  0.58341692
   0.85198121  0.92654675  0.55680464
   0.44424728  0.82441952  0.55873109
   0.65616433  0.63059236  0.57242375
   0.74286026  0.77941444  0.05729897
   0.15251547  0.87606149  0.06108637
   0.55391433  0.97874630  0.06439661
   0.65185418  0.12601584  0.58120998
   0.05336504  0.72982553  0.55903250
   0.35005269  0.68060242  0.07002611
unknown system                          
           1
     6.378218    0.018378    0.009902
    -1.821317    9.550955    0.009705
     0.007040    0.002051    4.131832
   V    Fe
  17   3
Direct configuration=    14
   0.54855407  0.48104014  0.08611640
   0.95672379  0.58141672  0.07659005
   0.95393813  0.07533912  0.07654838
   0.14925881  0.37817354  0.08542625
   0.34982177  0.17758216  0.08792916
   0.74985463  0.27693932  0.09036809
   0.45188697  0.32641912  0.59032919
   0.04502871  0.22750179  0.58871070
   0.24976213  0.53124725  0.58183236
   0.26066644  0.02932343  0.56881793
   0.85051038  0.43100799  0.58349683
   0.85292913  0.92693446  0.55916907
   0.44446814  0.82433412  0.56005824
   0.65608418  0.63014812  0.57308296
   0.74355145  0.77890264  0.05821107
   0.15331885  0.87581363  0.06177217
   0.55430843  0.97898379  0.06513167
   0.65163375  0.12593130  0.58032069
   0.05353933  0.73003235  0.56109152
   0.35023789  0.68046700  0.07023828
unknown system                          
           1
     6.384679    0.022525    0.010623
    -1.816938    9.544710    0.012106
     0.007505    0.003175    4.136610
   V    Fe
  17   3
Direct configuration=    15
   0.54864156  0.48184344  0.08344033
   0.95700876  0.58100983  0.07800317
   0.95446681  0.07539872  0.07481581
   0.14863070  0.37800577  0.08585889
   0.34870247  0.17748814  0.08359447
   0.74864429  0.27714103  0.08599509
   0.45151302  0.32671128  0.58809664
   0.04347178  0.22795005  0.58539944
   0.24817443  0.53139094  0.57996073
   0.26025794  0.02917987  0.57076139
   0.85008902  0.43126706  0.58366104
   0.85487710  0.92773140  0.56402866
   0.44492202  0.82415820  0.56278612
   0.65591960  0.62923417  0.57443819
   0.74497234  0.77784932  0.06008602
   0.15497022  0.87530329  0.06318180
   0.55511828  0.97947211  0.06664233
   0.65118079  0.12575756  0.57849288
   0.05389727  0.73045751  0.56532358
   0.35061861  0.68018831  0.07067443
unknown system                          
           1
     6.380334    0.022279    0.008990
    -1.816072    9.544316    0.012723
     0.006441    0.003241    4.136837
   V    Fe
  17   3
Direct configuration=    16
   0.54816485  0.48179189  0.08299851
   0.95722782  0.58106298  0.07781146
   0.95436366  0.07536896  0.07452002
   0.14887716  0.37819312  0.08558046
   0.34871817  0.17745249  0.08240441
   0.74868709  0.27750848  0.08535985
   0.45148381  0.32683768  0.58714792
   0.04342544  0.22813868  0.58473599
   0.24784529  0.53151782  0.58015689
   0.26065643  0.02926656  0.57097599
   0.84980458  0.43125031  0.58340049
   0.85456124  0.92745158  0.56444012
   0.44551008  0.82405998  0.56404902
   0.65577748  0.62910531  0.57356450
   0.74518654  0.77776187  0.06193604
   0.15509900  0.87511986  0.06402634
   0.55521755  0.97959581  0.06699803
   0.65077275  0.12565276  0.57778188
   0.05393618  0.73038024  0.56668237
   0.35076190  0.68002163  0.07067070
unknown system                          
           1
     6.375364    0.021997    0.007122
    -1.815081    9.543865    0.013429
     0.005224    0.003315    4.137096
   V    Fe
  17   3
Direct configuration=    17
   0.54761915  0.48173291  0.08249298
   0.95747850  0.58112378  0.07759230
   0.95424553  0.07533491  0.07418169
   0.14915916  0.37840742  0.08526209
   0.34873591  0.17741173  0.08104335
   0.74873590  0.27792878  0.08463328
   0.45145019  0.32698227  0.58606282
   0.04337224  0.22835446  0.58397715
   0.24746859  0.53166294  0.58038106
   0.26111256  0.02936571  0.57122160
   0.84947897  0.43123115  0.58310237
   0.85419985  0.92713150  0.56491060
   0.44618339  0.82394763  0.56549370
   0.65561467  0.62895792  0.57256522
   0.74543207  0.77766183  0.06405204
   0.15524657  0.87491006  0.06499233
   0.55533122  0.97973730  0.06740488
   0.65030561  0.12553288  0.57696855
   0.05398100  0.73029185  0.56823645
   0.35092593  0.67983098  0.07066653
unknown system                          
           1
     6.374178    0.021930    0.006677
    -1.814845    9.543757    0.013598
     0.004934    0.003333    4.137158
   V    Fe
  17   3
Direct configuration=    18
   0.54748881  0.48171884  0.08237230
   0.95753835  0.58113829  0.07754002
   0.95421731  0.07532679  0.07410095
   0.14922648  0.37845856  0.08518615
   0.34874009  0.17740201  0.08071859
   0.74874752  0.27802908  0.08445989
   0.45144210  0.32701677  0.58580390
   0.04335950  0.22840595  0.58379607
   0.24737864  0.53169757  0.58043450
   0.26122149  0.02938938  0.57128025
   0.84940120  0.43122657  0.58303120
   0.85411357  0.92705511  0.56502284
   0.44634426  0.82392082  0.56583849
   0.65557575  0.62892275  0.57232676
   0.74549080  0.77763795  0.06455698
   0.15528186  0.87485999  0.06522285
   0.55535838  0.97977107  0.06750197
   0.65019401  0.12550427  0.57677443
   0.05399177  0.73027075  0.56860729
   0.35096510  0.67978548  0.07066556
unknown system                          
           1
     6.377659    0.022425    0.005850
    -1.815127    9.552495    0.013101
     0.004397    0.003013    4.141146
   V    Fe
  17   3
Direct configuration=    19
   0.54725866  0.48163326  0.08155254
   0.95736113  0.58113671  0.07736482
   0.95415787  0.07532522  0.07387327
   0.14910494  0.37858072  0.08430445
   0.34882365  0.17754165  0.08013068
   0.74892656  0.27818931  0.08402032
   0.45121312  0.32695655  0.58465902
   0.04347275  0.22844390  0.58307275
   0.24744187  0.53177213  0.58050050
   0.26137464  0.02931126  0.57096291
   0.84920063  0.43126988  0.58217822
   0.85403371  0.92680815  0.56570013
   0.44658077  0.82385026  0.56692826
   0.65553975  0.62894841  0.57252276
   0.74544306  0.77761163  0.06589065
   0.15532715  0.87494810  0.06662904
   0.55541224  0.97970315  0.06816678
   0.65008723  0.12556796  0.57615031
   0.05415554  0.73015196  0.56942131
   0.35116172  0.67978783  0.07121227
unknown system                          
           1
     6.377429    0.022392    0.005905
    -1.815108    9.551916    0.013133
     0.004432    0.003034    4.140882
   V    Fe
  17   3
Direct configuration=    20
   0.54727390  0.48163892  0.08160676
   0.95737285  0.58113682  0.07737641
   0.95416180  0.07532532  0.07388833
   0.14911299  0.37857264  0.08436277
   0.34881813  0.17753241  0.08016956
   0.74891472  0.27817871  0.08404939
   0.45122827  0.32696053  0.58473475
   0.04346526  0.22844139  0.58312059
   0.24743769  0.53176720  0.58049613
   0.26136451  0.02931642  0.57098390
   0.84921390  0.43126701  0.58223464
   0.85403898  0.92682448  0.56565534
   0.44656512  0.82385493  0.56685618
   0.65554213  0.62894671  0.57250979
   0.74544621  0.77761337  0.06580245
   0.15532415  0.87494227  0.06653604
   0.55540867  0.97970764  0.06812281
   0.65009430  0.12556375  0.57619159
   0.05414470  0.73015982  0.56936747
   0.35114871  0.67978767  0.07117611
unknown system                          
           1
     6.375666    0.023117    0.005681
    -1.813514    9.550235    0.012514
     0.004288    0.002739    4.140291
   V    Fe
  17   3
Direct configuration=    21
   0.54720440  0.48158286  0.08098171
   0.95717159  0.58113007  0.07727369
   0.95416723  0.07532294  0.07376621
   0.14894488  0.37862575  0.08362620
   0.34884810  0.17764514  0.07984756
   0.74902427  0.27820647  0.08368581
   0.45105214  0.32688537  0.58392017
   0.04355090  0.22841992  0.58254492
   0.24755761  0.53179063  0.58038847
   0.26137580  0.02923978  0.57078024
   0.84913401  0.43131094  0.58153926
   0.85410460  0.92671670  0.56626252
   0.44658566  0.82382060  0.56756822
   0.65554679  0.62898304  0.57297227
   0.74536071  0.77760288  0.06655495
   0.15535144  0.87505768  0.06752732
   0.55543644  0.97963818  0.06864411
   0.65012626  0.12563338  0.57584943
   0.05426799  0.73009308  0.56979582
   0.35126619  0.67983257  0.07171213
unknown system                          
           1
     6.372550    0.024400    0.005287
    -1.810695    9.547262    0.011418
     0.004033    0.002217    4.139247
   V    Fe
  17   3
Direct configuration=    22
   0.54708144  0.48148368  0.07987603
   0.95681553  0.58111815  0.07709198
   0.95417682  0.07531873  0.07355018
   0.14864742  0.37871967  0.08232329
   0.34890106  0.17784453  0.07927801
   0.74921805  0.27825555  0.08304269
   0.45074052  0.32675238  0.58247922
   0.04370239  0.22838190  0.58152663
   0.24776974  0.53183207  0.58019804
   0.26139578  0.02910418  0.57041997
   0.84899262  0.43138863  0.58030921
   0.85422074  0.92652608  0.56733654
   0.44662206  0.82375991  0.56882773
   0.65555506  0.62904734  0.57379035
   0.74520949  0.77758437  0.06788604
   0.15539974  0.87526190  0.06928083
   0.55548562  0.97951534  0.06956622
   0.65018275  0.12575654  0.57524420
   0.05448614  0.72997502  0.57055350
   0.35147404  0.67991201  0.07266033
unknown system                          
           1
     6.373606    0.025127    0.005366
    -1.809904    9.546892    0.011088
     0.004086    0.002084    4.139387
   V    Fe
  17   3
Direct configuration=    23
   0.54709376  0.48146278  0.07958399
   0.95677992  0.58116969  0.07699776
   0.95423193  0.07529423  0.07357234
   0.14857287  0.37873527  0.08175240
   0.34885012  0.17784620  0.07881511
   0.74917199  0.27817755  0.08236682
   0.45074347  0.32673756  0.58189087
   0.04367442  0.22833310  0.58087763
   0.24780412  0.53180808  0.57972631
   0.26131550  0.02910826  0.57079286
   0.84905033  0.43140297  0.57990208
   0.85439194  0.92658090  0.56798257
   0.44650045  0.82377045  0.56941805
   0.65553918  0.62904862  0.57423797
   0.74523940  0.77755670  0.06846571
   0.15540564  0.87527063  0.06964664
   0.55550897  0.97953695  0.06993943
   0.65031359  0.12575452  0.57521550
   0.05449844  0.72999951  0.57091483
   0.35139094  0.67994405  0.07314210
unknown system                          
           1
     6.376775    0.027309    0.005605
    -1.807531    9.545782    0.010100
     0.004245    0.001686    4.139806
   V    Fe
  17   3
Direct configuration=    24
   0.54713071  0.48140007  0.07870790
   0.95667310  0.58132431  0.07671513
   0.95439725  0.07522072  0.07363879
   0.14834928  0.37878206  0.08003982
   0.34869731  0.17785119  0.07742644
   0.74903390  0.27794352  0.08033928
   0.45075235  0.32669308  0.58012589
   0.04359057  0.22818664  0.57893070
   0.24790724  0.53173608  0.57831117
   0.26107471  0.02912054  0.57191151
   0.84922345  0.43144594  0.57868074
   0.85490542  0.92674535  0.56992062
   0.44613569  0.82380211  0.57118896
   0.65549155  0.62905247  0.57558078
   0.74532913  0.77747369  0.07020467
   0.15542332  0.87529682  0.07074402
   0.55557899  0.97960179  0.07105902
   0.65070605  0.12574841  0.57512942
   0.05453531  0.73007301  0.57199880
   0.35114168  0.68004021  0.07458736
unknown system                          
           1
     6.377818    0.028026    0.005683
    -1.806751    9.545417    0.009775
     0.004297    0.001555    4.139944
   V    Fe
  17   3
Direct configuration=    25
   0.54714286  0.48137943  0.07841980
   0.95663797  0.58137517  0.07662220
   0.95445160  0.07519653  0.07366064
   0.14827579  0.37879745  0.07947665
   0.34864709  0.17785283  0.07696979
   0.74898855  0.27786652  0.07967251
   0.45075528  0.32667843  0.57954548
   0.04356303  0.22813845  0.57829044
   0.24794115  0.53171237  0.57784580
   0.26099555  0.02912461  0.57227938
   0.84928036  0.43146004  0.57827910
   0.85507417  0.92679942  0.57055794
   0.44601579  0.82381258  0.57177133
   0.65547589  0.62905376  0.57602236
   0.74535862  0.77744640  0.07077651
   0.15542912  0.87530545  0.07110489
   0.55560199  0.97962313  0.07142719
   0.65083505  0.12574637  0.57510110
   0.05454742  0.73009719  0.57235526
   0.35105973  0.68007188  0.07506264
unknown system                          
           1
     6.375523    0.028820    0.004852
    -1.804897    9.541576    0.009285
     0.003760    0.001243    4.138201
   V    Fe
  17   3
Direct configuration=    26
   0.54714758  0.48138501  0.07819433
   0.95671542  0.58142904  0.07650196
   0.95452305  0.07517818  0.07376863
   0.14834897  0.37877413  0.07866111
   0.34862296  0.17779175  0.07642243
   0.74893522  0.27780961  0.07868526
   0.45087320  0.32668877  0.57879517
   0.04353626  0.22813998  0.57754265
   0.24787064  0.53168852  0.57735729
   0.26100976  0.02920028  0.57279725
   0.84932774  0.43142361  0.57788575
   0.85503319  0.92680889  0.57128790
   0.44603117  0.82386863  0.57242972
   0.65542356  0.62906174  0.57624924
   0.74535869  0.77745942  0.07172350
   0.15540559  0.87525783  0.07156819
   0.55563978  0.97964669  0.07197132
   0.65088370  0.12569551  0.57507021
   0.05445406  0.73016707  0.57291022
   0.35093645  0.68006335  0.07541887
unknown system                          
           1
     6.374840    0.029056    0.004605
    -1.804345    9.540432    0.009139
     0.003600    0.001150    4.137682
   V    Fe
  17   3
Direct configuration=    27
   0.54714898  0.48138667  0.07812717
   0.95673849  0.58144508  0.07646615
   0.95454433  0.07517271  0.07380080
   0.14837074  0.37876718  0.07841819
   0.34861576  0.17777355  0.07625938
   0.74891932  0.27779265  0.07839119
   0.45090831  0.32669184  0.57857168
   0.04352827  0.22814043  0.57731990
   0.24784963  0.53168141  0.57721177
   0.26101400  0.02922282  0.57295152
   0.84934184  0.43141275  0.57776859
   0.85502100  0.92681171  0.57150533
   0.44603576  0.82388533  0.57262584
   0.65540798  0.62906412  0.57631681
   0.74535874  0.77746330  0.07200558
   0.15539860  0.87524365  0.07170619
   0.55565106  0.97965371  0.07213340
   0.65089819  0.12568036  0.57506101
   0.05442627  0.73018790  0.57307552
   0.35089975  0.68006082  0.07552498
unknown system                          
           1
     6.373473    0.029529    0.004110
    -1.803241    9.538145    0.008847
     0.003279    0.000964    4.136644
   V    Fe
  17   3
Direct configuration=    28
   0.54715177  0.48138999  0.07799283
   0.95678461  0.58147717  0.07639453
   0.95458690  0.07516178  0.07386516
   0.14841428  0.37875326  0.07793229
   0.34860136  0.17773715  0.07593324
   0.74888749  0.27775872  0.07780296
   0.45097850  0.32669797  0.57812466
   0.04351227  0.22814132  0.57687435
   0.24780760  0.53166718  0.57692069
   0.26102248  0.02926792  0.57326008
   0.84937005  0.43139104  0.57753423
   0.85499664  0.92681737  0.57194025
   0.44604496  0.82391875  0.57301813
   0.65537682  0.62906888  0.57645199
   0.74535884  0.77747109  0.07256981
   0.15538462  0.87521529  0.07198222
   0.55567361  0.97966776  0.07245760
   0.65092718  0.12565006  0.57504260
   0.05437069  0.73022955  0.57340617
   0.35082633  0.68005575  0.07573721
unknown system                          
           1
     6.374435    0.029196    0.004458
    -1.804017    9.539754    0.009053
     0.003505    0.001095    4.137374
   V    Fe
  17   3
Direct configuration=    29
   0.54714981  0.48138766  0.07808736
   0.95675216  0.58145460  0.07644492
   0.95455694  0.07516948  0.07381987
   0.14838366  0.37876306  0.07827421
   0.34861150  0.17776277  0.07616275
   0.74890991  0.27778261  0.07821690
   0.45092913  0.32669366  0.57843922
   0.04352355  0.22814070  0.57718788
   0.24783719  0.53167719  0.57712552
   0.26101650  0.02923618  0.57304294
   0.84935021  0.43140632  0.57769915
   0.85501377  0.92681338  0.57163420
   0.44603847  0.82389523  0.57274208
   0.65539874  0.62906553  0.57635687
   0.74535875  0.77746560  0.07217276
   0.15539444  0.87523524  0.07178798
   0.55565773  0.97965787  0.07222946
   0.65090678  0.12567138  0.57505555
   0.05440979  0.73020023  0.57317350
   0.35087798  0.68005931  0.07558787
unknown system                          
           1
     6.374902    0.029601    0.002820
    -1.803556    9.541904    0.008124
     0.002444    0.000492    4.138059
   V    Fe
  17   3
Direct configuration=    30
   0.54715562  0.48143341  0.07786668
   0.95688906  0.58146464  0.07634634
   0.95461105  0.07516991  0.07398230
   0.14859623  0.37870540  0.07737350
   0.34866501  0.17767842  0.07569907
   0.74890963  0.27777888  0.07719250
   0.45111522  0.32672130  0.57765146
   0.04355010  0.22820544  0.57651192
   0.24769446  0.53167418  0.57679395
   0.26112117  0.02933683  0.57349484
   0.84935648  0.43134275  0.57732732
   0.85474966  0.92675843  0.57232722
   0.44618343  0.82396415  0.57333416
   0.65531482  0.62908155  0.57631167
   0.74529953  0.77750588  0.07327596
   0.15533735  0.87516769  0.07239321
   0.55568548  0.97966009  0.07287585
   0.65082738  0.12559597  0.57497732
   0.05423827  0.73028248  0.57381893
   0.35077706  0.68001059  0.07568681
unknown system                          
           1
     6.375388    0.030021    0.001118
    -1.803076    9.544138    0.007160
     0.001342   -0.000136    4.138770
   V    Fe
  17   3
Direct configuration=    31
   0.54716160  0.48148093  0.07763737
   0.95703131  0.58147507  0.07624395
   0.95466730  0.07517037  0.07415110
   0.14881696  0.37864542  0.07643762
   0.34872053  0.17759075  0.07521725
   0.74890915  0.27777495  0.07612803
   0.45130845  0.32674995  0.57683296
   0.04357756  0.22827268  0.57580953
   0.24754608  0.53167104  0.57644935
   0.26123002  0.02944144  0.57396448
   0.84936293  0.43127666  0.57694093
   0.85447534  0.92670139  0.57304724
   0.44633416  0.82403580  0.57394948