  20  20   0   0
  0.1295360E+02  0.6718815E-09  0.6718815E-09  0.6718816E-09  0.5000000E-15
  1.000000000000000E-004
  CAR 
 unknown system                          
      7.17067463     -2.16028871  301      5.23623878      1.00000000
     -2.160  0.0000E+00  0.0000E+00
     -2.129  0.0000E+00  0.0000E+00
     -2.098  0.0000E+00  0.0000E+00
     -2.067  0.0000E+00  0.0000E+00
     -2.036  0.0000E+00  0.0000E+00
     -2.005  0.0000E+00  0.0000E+00
     -1.974  0.0000E+00  0.0000E+00
     -1.943  0.0000E+00  0.0000E+00
     -1.911  0.0000E+00  0.0000E+00
     -1.880  0.0000E+00  0.0000E+00
     -1.849  0.0000E+00  0.0000E+00
     -1.818  0.0000E+00  0.0000E+00
     -1.787  0.0000E+00  0.0000E+00
     -1.756  0.0000E+00  0.0000E+00
     -1.725  0.1160E-16  0.3608E-18
     -1.694  0.3543E-15  0.1138E-16
     -1.663  0.9356E-14  0.3024E-15
     -1.632  0.2039E-12  0.6643E-14
     -1.600  0.3668E-11  0.1207E-12
     -1.569  0.5451E-10  0.1816E-11
     -1.538  0.6691E-09  0.2263E-10
     -1.507  0.6784E-08  0.2336E-09
     -1.476  0.5682E-07  0.2001E-08
     -1.445  0.3932E-06  0.1423E-07
     -1.414  0.2248E-05  0.8415E-07
     -1.383  0.1062E-04  0.4145E-06
     -1.352  0.4147E-04  0.1704E-05
     -1.321  0.1338E-03  0.5867E-05
     -1.289  0.3569E-03  0.1697E-04
     -1.258  0.7867E-03  0.4143E-04
     -1.227  0.1433E-02  0.8602E-04
     -1.196  0.2159E-02  0.1532E-03
     -1.165  0.2688E-02  0.2368E-03
     -1.134  0.2766E-02  0.3228E-03
     -1.103  0.2353E-02  0.3960E-03
     -1.072  0.1655E-02  0.4475E-03
     -1.041  0.9621E-03  0.4774E-03
     -1.009  0.4623E-03  0.4918E-03
     -0.978  0.1836E-03  0.4975E-03
     -0.947  0.6028E-04  0.4994E-03
     -0.916  0.1635E-04  0.4999E-03
     -0.885  0.3666E-05  0.5000E-03
     -0.854  0.6793E-06  0.5000E-03
     -0.823  0.1040E-06  0.5000E-03
     -0.792  0.1315E-07  0.5000E-03
     -0.761  0.1387E-08  0.5000E-03
     -0.730  0.2969E-09  0.5000E-03
     -0.698  0.2012E-08  0.5000E-03
     -0.667  0.1859E-07  0.5000E-03
     -0.636  0.1425E-06  0.5000E-03
     -0.605  0.9029E-06  0.5000E-03
     -0.574  0.4726E-05  0.5002E-03
     -0.543  0.2044E-04  0.5008E-03
     -0.512  0.7306E-04  0.5031E-03
     -0.481  0.2158E-03  0.5098E-03
     -0.450  0.5270E-03  0.5262E-03
     -0.419  0.1064E-02  0.5593E-03
     -0.387  0.1777E-02  0.6146E-03
     -0.356  0.2461E-02  0.6911E-03
     -0.325  0.2856E-02  0.7799E-03
     -0.294  0.2878E-02  0.8694E-03
     -0.263  0.2827E-02  0.9574E-03
     -0.232  0.3348E-02  0.1061E-02
     -0.201  0.5108E-02  0.1220E-02
     -0.170  0.8296E-02  0.1478E-02
     -0.139  0.1221E-01  0.1858E-02
     -0.107  0.1536E-01  0.2336E-02
     -0.076  0.1627E-01  0.2842E-02
     -0.045  0.1452E-01  0.3294E-02
     -0.014  0.1109E-01  0.3639E-02
      0.017  0.7757E-02  0.3880E-02
      0.048  0.5965E-02  0.4065E-02
      0.079  0.6181E-02  0.4258E-02
      0.110  0.7883E-02  0.4503E-02
      0.141  0.1004E-01  0.4815E-02
      0.172  0.1175E-01  0.5180E-02
      0.204  0.1256E-01  0.5571E-02
      0.235  0.1238E-01  0.5956E-02
      0.266  0.1123E-01  0.6305E-02
      0.297  0.9239E-02  0.6593E-02
      0.328  0.6902E-02  0.6807E-02
      0.359  0.4912E-02  0.6960E-02
      0.390  0.3732E-02  0.7076E-02
      0.421  0.3278E-02  0.7178E-02
      0.452  0.3082E-02  0.7274E-02
      0.483  0.2712E-02  0.7358E-02
      0.515  0.2065E-02  0.7423E-02
      0.546  0.1320E-02  0.7464E-02
      0.577  0.7006E-03  0.7486E-02
      0.608  0.3078E-03  0.7495E-02
      0.639  0.1118E-03  0.7499E-02
      0.670  0.3359E-04  0.7500E-02
      0.701  0.8337E-05  0.7500E-02
      0.732  0.1714E-05  0.7500E-02
      0.763  0.3278E-06  0.7500E-02
      0.795  0.3418E-06  0.7500E-02
      0.826  0.1980E-05  0.7500E-02
      0.857  0.1070E-04  0.7500E-02
      0.888  0.4794E-04  0.7502E-02
      0.919  0.1777E-03  0.7507E-02
      0.950  0.5453E-03  0.7524E-02
      0.981  0.1389E-02  0.7568E-02
      1.012  0.2945E-02  0.7659E-02
      1.043  0.5244E-02  0.7822E-02
      1.074  0.7949E-02  0.8070E-02
      1.106  0.1053E-01  0.8397E-02
      1.137  0.1270E-01  0.8792E-02
      1.168  0.1465E-01  0.9248E-02
      1.199  0.1673E-01  0.9768E-02
      1.230  0.1890E-01  0.1036E-01
      1.261  0.2062E-01  0.1100E-01
      1.292  0.2127E-01  0.1166E-01
      1.323  0.2078E-01  0.1230E-01
      1.354  0.1981E-01  0.1292E-01
      1.385  0.1921E-01  0.1352E-01
      1.417  0.1938E-01  0.1412E-01
      1.448  0.2019E-01  0.1475E-01
      1.479  0.2145E-01  0.1542E-01
      1.510  0.2297E-01  0.1613E-01
      1.541  0.2444E-01  0.1689E-01
      1.572  0.2539E-01  0.1768E-01
      1.603  0.2556E-01  0.1848E-01
      1.634  0.2498E-01  0.1925E-01
      1.665  0.2381E-01  0.1999E-01
      1.697  0.2216E-01  0.2068E-01
      1.728  0.2038E-01  0.2132E-01
      1.759  0.1935E-01  0.2192E-01
      1.790  0.2034E-01  0.2255E-01
      1.821  0.2451E-01  0.2331E-01
      1.852  0.3202E-01  0.2431E-01
      1.883  0.4153E-01  0.2560E-01
      1.914  0.5049E-01  0.2717E-01
      1.945  0.5637E-01  0.2892E-01
      1.976  0.5807E-01  0.3073E-01
      2.008  0.5666E-01  0.3249E-01
      2.039  0.5498E-01  0.3420E-01
      2.070  0.5593E-01  0.3594E-01
      2.101  0.6052E-01  0.3783E-01
      2.132  0.6714E-01  0.3991E-01
      2.163  0.7292E-01  0.4218E-01
      2.194  0.7581E-01  0.4454E-01
      2.225  0.7537E-01  0.4688E-01
      2.256  0.7199E-01  0.4912E-01
      2.287  0.6585E-01  0.5117E-01
      2.319  0.5714E-01  0.5295E-01
      2.350  0.4695E-01  0.5441E-01
      2.381  0.3747E-01  0.5557E-01
      2.412  0.3114E-01  0.5654E-01
      2.443  0.2930E-01  0.5745E-01
      2.474  0.3147E-01  0.5843E-01
      2.505  0.3564E-01  0.5954E-01
      2.536  0.3945E-01  0.6077E-01
      2.567  0.4153E-01  0.6206E-01
      2.599  0.4203E-01  0.6337E-01
      2.630  0.4191E-01  0.6467E-01
      2.661  0.4167E-01  0.6597E-01
      2.692  0.4114E-01  0.6725E-01
      2.723  0.4033E-01  0.6850E-01
      2.754  0.4025E-01  0.6975E-01
      2.785  0.4210E-01  0.7106E-01
      2.816  0.4586E-01  0.7249E-01
      2.847  0.4989E-01  0.7404E-01
      2.878  0.5268E-01  0.7568E-01
      2.910  0.5476E-01  0.7738E-01
      2.941  0.5856E-01  0.7920E-01
      2.972  0.6593E-01  0.8125E-01
      3.003  0.7597E-01  0.8362E-01
      3.034  0.8531E-01  0.8627E-01
      3.065  0.9065E-01  0.8909E-01
      3.096  0.9090E-01  0.9192E-01
      3.127  0.8718E-01  0.9463E-01
      3.158  0.8137E-01  0.9716E-01
      3.189  0.7499E-01  0.9949E-01
      3.221  0.6906E-01  0.1016E+00
      3.252  0.6426E-01  0.1036E+00
      3.283  0.6098E-01  0.1055E+00
      3.314  0.5917E-01  0.1074E+00
      3.345  0.5837E-01  0.1092E+00
      3.376  0.5804E-01  0.1110E+00
      3.407  0.5813E-01  0.1128E+00
      3.438  0.5942E-01  0.1147E+00
      3.469  0.6305E-01  0.1166E+00
      3.500  0.6939E-01  0.1188E+00
      3.532  0.7745E-01  0.1212E+00
      3.563  0.8544E-01  0.1238E+00
      3.594  0.9187E-01  0.1267E+00
      3.625  0.9591E-01  0.1297E+00
      3.656  0.9697E-01  0.1327E+00
      3.687  0.9444E-01  0.1356E+00
      3.718  0.8825E-01  0.1384E+00
      3.749  0.7939E-01  0.1408E+00
      3.780  0.6943E-01  0.1430E+00
      3.812  0.5956E-01  0.1449E+00
      3.843  0.5037E-01  0.1464E+00
      3.874  0.4251E-01  0.1477E+00
      3.905  0.3715E-01  0.1489E+00
      3.936  0.3546E-01  0.1500E+00
      3.967  0.3756E-01  0.1512E+00
      3.998  0.4237E-01  0.1525E+00
      4.029  0.4834E-01  0.1540E+00
      4.060  0.5418E-01  0.1557E+00
      4.091  0.5885E-01  0.1575E+00
      4.123  0.6137E-01  0.1594E+00
      4.154  0.6098E-01  0.1613E+00
      4.185  0.5776E-01  0.1631E+00
      4.216  0.5298E-01  0.1648E+00
      4.247  0.4857E-01  0.1663E+00
      4.278  0.4589E-01  0.1677E+00
      4.309  0.4485E-01  0.1691E+00
      4.340  0.4428E-01  0.1705E+00
      4.371  0.4317E-01  0.1718E+00
      4.402  0.4142E-01  0.1731E+00
      4.434  0.3983E-01  0.1743E+00
      4.465  0.3968E-01  0.1756E+00
      4.496  0.4220E-01  0.1769E+00
      4.527  0.4788E-01  0.1784E+00
      4.558  0.5574E-01  0.1801E+00
      4.589  0.6334E-01  0.1821E+00
      4.620  0.6799E-01  0.1842E+00
      4.651  0.6839E-01  0.1863E+00
      4.682  0.6564E-01  0.1884E+00
      4.714  0.6267E-01  0.1903E+00
      4.745  0.6230E-01  0.1922E+00
      4.776  0.6523E-01  0.1943E+00
      4.807  0.6955E-01  0.1964E+00
      4.838  0.7199E-01  0.1987E+00
      4.869  0.7017E-01  0.2009E+00
      4.900  0.6407E-01  0.2029E+00
      4.931  0.5586E-01  0.2046E+00
      4.962  0.4829E-01  0.2061E+00
      4.993  0.4291E-01  0.2074E+00
      5.025  0.3977E-01  0.2087E+00
      5.056  0.3825E-01  0.2099E+00
      5.087  0.3795E-01  0.2110E+00
      5.118  0.3895E-01  0.2122E+00
      5.149  0.4158E-01  0.2135E+00
      5.180  0.4596E-01  0.2150E+00
      5.211  0.5157E-01  0.2166E+00
      5.242  0.5738E-01  0.2184E+00
      5.273  0.6230E-01  0.2203E+00
      5.304  0.6554E-01  0.2223E+00
      5.336  0.6669E-01  0.2244E+00
      5.367  0.6593E-01  0.2265E+00
      5.398  0.6442E-01  0.2285E+00
      5.429  0.6408E-01  0.2305E+00
      5.460  0.6641E-01  0.2325E+00
      5.491  0.7098E-01  0.2347E+00
      5.522  0.7539E-01  0.2371E+00
      5.553  0.7708E-01  0.2395E+00
      5.584  0.7541E-01  0.2418E+00
      5.616  0.7185E-01  0.2441E+00
      5.647  0.6829E-01  0.2462E+00
      5.678  0.6547E-01  0.2482E+00
      5.709  0.6310E-01  0.2502E+00
      5.740  0.6074E-01  0.2521E+00
      5.771  0.5808E-01  0.2539E+00
      5.802  0.5483E-01  0.2556E+00
      5.833  0.5093E-01  0.2572E+00
      5.864  0.4699E-01  0.2586E+00
      5.895  0.4399E-01  0.2600E+00
      5.927  0.4274E-01  0.2613E+00
      5.958  0.4333E-01  0.2627E+00
      5.989  0.4511E-01  0.2641E+00
      6.020  0.4670E-01  0.2655E+00
      6.051  0.4647E-01  0.2670E+00
      6.082  0.4340E-01  0.2683E+00
      6.113  0.3753E-01  0.2695E+00
      6.144  0.2982E-01  0.2704E+00
      6.175  0.2160E-01  0.2711E+00
      6.206  0.1411E-01  0.2715E+00
      6.238  0.8201E-02  0.2718E+00
      6.269  0.4188E-02  0.2719E+00
      6.300  0.1858E-02  0.2720E+00
      6.331  0.7095E-03  0.2720E+00
      6.362  0.2315E-03  0.2720E+00
      6.393  0.6417E-04  0.2720E+00
      6.424  0.1503E-04  0.2720E+00
      6.455  0.2961E-05  0.2720E+00
      6.486  0.4892E-06  0.2720E+00
      6.518  0.6757E-07  0.2720E+00
      6.549  0.7783E-08  0.2720E+00
      6.580  0.7461E-09  0.2720E+00
      6.611  0.5943E-10  0.2720E+00
      6.642  0.3929E-11  0.2720E+00
      6.673  0.2153E-12  0.2720E+00
      6.704  0.9766E-14  0.2720E+00
      6.735  0.3694E-15  0.2720E+00
      6.766  0.1071E-16  0.2720E+00
      6.797  0.0000E+00  0.2720E+00
      6.829  0.0000E+00  0.2720E+00
      6.860  0.0000E+00  0.2720E+00
      6.891  0.0000E+00  0.2720E+00
      6.922  0.0000E+00  0.2720E+00
      6.953  0.0000E+00  0.2720E+00
      6.984  0.0000E+00  0.2720E+00
      7.015  0.0000E+00  0.2720E+00
      7.046  0.0000E+00  0.2720E+00
      7.077  0.0000E+00  0.2720E+00
      7.108  0.0000E+00  0.2720E+00
      7.140  0.0000E+00  0.2720E+00
      7.171  0.0000E+00  0.2720E+00
