   20   20  500    1
  0.1295360E+02  0.6718815E-09  0.6718815E-09  0.6718816E-09  0.5000000E-15
  1.000000000000000E-004
  CAR 
 unknown system                          
    109      4     68
 
  0.0000000E+00  0.0000000E+00  0.0000000E+00  0.1250000E+00
    1       -1.160289   1.000000
    2        1.275905   1.000000
    3        1.275905   1.000000
    4        1.647996   1.000000
    5        1.647996   1.000000
    6        2.018593   1.000000
    7        2.203323   1.000000
    8        2.204693   1.000000
    9        2.204693   1.000000
   10        2.236459   1.000000
   11        2.271221   1.000000
   12        2.271221   1.000000
   13        2.311538   1.000000
   14        2.311538   1.000000
   15        2.369558   1.000000
   16        2.530328   1.000000
   17        2.633564   1.000000
   18        2.668687   1.000000
   19        2.668687   1.000000
   20        2.951224   1.000000
   21        2.951224   1.000000
   22        3.030480   1.000000
   23        3.030480   1.000000
   24        3.120390   1.000000
   25        3.120390   1.000000
   26        3.160453   1.000000
   27        3.338163   1.000000
   28        3.338163   1.000000
   29        3.346330   1.000000
   30        3.370727   1.000000
   31        3.433979   1.000000
   32        3.433979   1.000000
   33        3.577982   1.000000
   34        3.577982   1.000000
   35        3.701041   1.000000
   36        3.767755   1.000000
   37        3.853876   1.000000
   38        3.853877   1.000000
   39        4.001391   1.000000
   40        4.030320   1.000000
   41        4.030320   1.000000
   42        4.364417   1.000000
   43        4.457448   1.000000
   44        4.589117   1.000000
   45        4.606016   1.000000
   46        4.606016   1.000000
   47        4.644989   1.000000
   48        4.650873   1.000000
   49        4.650873   1.000000
   50        4.754762   1.000000
   51        4.754763   1.000000
   52        4.767887   1.000000
   53        4.767888   1.000000
   54        5.093990   0.977874
   55        5.296168   0.198350
   56        5.296169   0.198348
   57        5.319016   0.120871
   58        5.556633   0.000003
   59        5.556633   0.000003
   60        5.654147   0.000000
   61        5.659090   0.000000
   62        5.659090   0.000000
   63        5.721375   0.000000
   64        5.721375   0.000000
   65        5.858216   0.000000
   66        5.883100   0.000000
   67        5.883100   0.000000
   68        5.960980   0.000000
 
  0.5000000E+00 -0.6908832E-16 -0.3882095E-16  0.3750000E+00
    1       -0.115259   1.000000
    2       -0.079626   1.000000
    3        1.300557   1.000000
    4        1.540586   1.000000
    5        1.554159   1.000000
    6        1.919335   1.000000
    7        1.973233   1.000000
    8        1.993638   1.000000
    9        2.076316   1.000000
   10        2.112958   1.000000
   11        2.151276   1.000000
   12        2.163580   1.000000
   13        2.251329   1.000000
   14        2.279042   1.000000
   15        2.472701   1.000000
   16        2.547205   1.000000
   17        2.612545   1.000000
   18        2.817097   1.000000
   19        2.866916   1.000000
   20        2.887813   1.000000
   21        3.001496   1.000000
   22        3.044347   1.000000
   23        3.047908   1.000000
   24        3.122693   1.000000
   25        3.137013   1.000000
   26        3.169816   1.000000
   27        3.273273   1.000000
   28        3.324160   1.000000
   29        3.395185   1.000000
   30        3.471864   1.000000
   31        3.527389   1.000000
   32        3.559559   1.000000
   33        3.681049   1.000000
   34        3.699008   1.000000
   35        3.712851   1.000000
   36        3.784811   1.000000
   37        3.837257   1.000000
   38        3.949339   1.000000
   39        4.094108   1.000000
   40        4.150364   1.000000
   41        4.180604   1.000000
   42        4.287888   1.000000
   43        4.335685   1.000000
   44        4.422418   1.000000
   45        4.454713   1.000000
   46        4.578143   1.000000
   47        4.640477   1.000000
   48        4.644023   1.000000
   49        4.777936   1.000000
   50        4.843585   1.000000
   51        4.857372   1.000000
   52        4.966765   0.999931
   53        5.027149   0.998447
   54        5.152774   0.881074
   55        5.249960   0.423069
   56        5.342804   0.065897
   57        5.430338   0.003026
   58        5.519527   0.000031
   59        5.521995   0.000027
   60        5.541716   0.000008
   61        5.564335   0.000002
   62        5.667546   0.000000
   63        5.702350   0.000000
   64        5.759395   0.000000
   65        5.788091   0.000000
   66        6.017066   0.000000
   67        6.067218   0.000000
   68        6.104837   0.000000
 
  0.5000000E+00  0.5000000E+00 -0.4255166E-16  0.3750000E+00
    1        0.143904   1.000000
    2        0.251976   1.000000
    3        1.101408   1.000000
    4        1.211806   1.000000
    5        1.409519   1.000000
    6        1.655405   1.000000
    7        1.743653   1.000000
    8        1.889050   1.000000
    9        1.895116   1.000000
   10        1.951604   1.000000
   11        2.117528   1.000000
   12        2.166145   1.000000
   13        2.289062   1.000000
   14        2.344927   1.000000
   15        2.521855   1.000000
   16        2.674614   1.000000
   17        2.708507   1.000000
   18        2.824107   1.000000
   19        2.841707   1.000000
   20        2.993013   1.000000
   21        3.062778   1.000000
   22        3.064068   1.000000
   23        3.124061   1.000000
   24        3.190477   1.000000
   25        3.239499   1.000000
   26        3.258969   1.000000
   27        3.398194   1.000000
   28        3.496451   1.000000
   29        3.539804   1.000000
   30        3.553035   1.000000
   31        3.578638   1.000000
   32        3.639324   1.000000
   33        3.648460   1.000000
   34        3.652451   1.000000
   35        3.685694   1.000000
   36        3.740267   1.000000
   37        3.786612   1.000000
   38        3.983829   1.000000
   39        4.078344   1.000000
   40        4.081794   1.000000
   41        4.155850   1.000000
   42        4.201185   1.000000
   43        4.273053   1.000000
   44        4.362350   1.000000
   45        4.534240   1.000000
   46        4.553558   1.000000
   47        4.591205   1.000000
   48        4.682314   1.000000
   49        4.802696   1.000000
   50        4.843618   1.000000
   51        4.869744   1.000000
   52        4.969845   0.999918
   53        5.066580   0.991787
   54        5.193268   0.728308
   55        5.235395   0.504762
   56        5.249940   0.423178
   57        5.309168   0.151182
   58        5.344240   0.063335
   59        5.376290   0.023816
   60        5.483634   0.000234
   61        5.502779   0.000082
   62        5.609270   0.000000
   63        5.658354   0.000000
   64        5.798372   0.000000
   65        5.800789   0.000000
   66        5.928670   0.000000
   67        6.009641   0.000000
   68        6.029614   0.000000
 
  0.5000000E+00  0.5000000E+00  0.5000000E+00  0.1250000E+00
    1       -0.334908   1.000000
    2        0.442570   1.000000
    3        1.450828   1.000000
    4        1.450829   1.000000
    5        1.850600   1.000000
    6        1.850600   1.000000
    7        1.950305   1.000000
    8        1.992935   1.000000
    9        1.992935   1.000000
   10        2.126173   1.000000
   11        2.173692   1.000000
   12        2.173692   1.000000
   13        2.236033   1.000000
   14        2.236033   1.000000
   15        2.432062   1.000000
   16        2.543860   1.000000
   17        2.543860   1.000000
   18        2.721981   1.000000
   19        2.721981   1.000000
   20        2.870553   1.000000
   21        2.948462   1.000000
   22        3.004787   1.000000
   23        3.004787   1.000000
   24        3.023917   1.000000
   25        3.029620   1.000000
   26        3.029621   1.000000
   27        3.208941   1.000000
   28        3.208941   1.000000
   29        3.336255   1.000000
   30        3.366198   1.000000
   31        3.488898   1.000000
   32        3.610637   1.000000
   33        3.614982   1.000000
   34        3.614983   1.000000
   35        3.631328   1.000000
   36        3.631329   1.000000
   37        3.842714   1.000000
   38        3.842715   1.000000
   39        4.016755   1.000000
   40        4.016755   1.000000
   41        4.130686   1.000000
   42        4.136383   1.000000
   43        4.320093   1.000000
   44        4.670954   1.000000
   45        4.755595   1.000000
   46        4.755595   1.000000
   47        4.841266   1.000000
   48        4.841267   1.000000
   49        4.887606   1.000000
   50        4.887606   1.000000
   51        4.910224   0.999998
   52        5.107884   0.965254
   53        5.107885   0.965253
   54        5.193948   0.725109
   55        5.366655   0.032565
   56        5.366655   0.032565
   57        5.420944   0.004499
   58        5.420944   0.004499
   59        5.470580   0.000460
   60        5.547315   0.000005
   61        5.547315   0.000005
   62        5.649455   0.000000
   63        5.884421   0.000000
   64        5.884421   0.000000
   65        5.930202   0.000000
   66        6.134116   0.000000
   67        6.134117   0.000000
   68        6.170675   0.000000
