 vasp.5.4.4.18Apr17-6-g9f103f2a35 (build Jul 11 2019 11:52:51) complex          
  
 executed on             LinuxIFC date 2023.11.29  16:56:05
 running on    4 total cores
 distrk:  each k-point on    4 cores,    1 groups
 distr:  one band on NCORES_PER_BAND=   1 cores,    4 groups


--------------------------------------------------------------------------------------------------------


 INCAR:
 POTCAR:    PAW_PBE V 08Apr2002                   
 POTCAR:    PAW_PBE Fe 06Sep2000                  
 POTCAR:    PAW_PBE V 08Apr2002                   
   VRHFIN =V: p6 d4 s1                                                          
   LEXCH  = PE                                                                  
   EATOM  =   170.8679 eV,   12.5584 Ry                                         
                                                                                
   TITEL  = PAW_PBE V 08Apr2002                                                 
   LULTRA =        F    use ultrasoft PP ?                                      
   IUNSCR =        1    unscreen: 0-lin 1-nonlin 2-no                           
   RPACOR =    2.000    partial core radius                                     
   POMASS =   50.941; ZVAL   =    5.000    mass and valenz                      
   RCORE  =    2.700    outmost cutoff radius                                   
   RWIGS  =    2.500; RWIGS  =    1.323    wigner-seitz radius (au A)           
   ENMAX  =  192.543; ENMIN  =  144.408 eV                                      
   RCLOC  =    1.779    cutoff for local pot                                    
   LCOR   =        T    correct aug charges                                     
   LPAW   =        T    paw PP                                                  
   EAUG   =  358.662                                                            
   DEXC   =    0.000                                                            
   RMAX   =    2.768    core radius for proj-oper                               
   RAUG   =    1.300    factor for augmentation sphere                          
   RDEP   =    2.762    radius for radial grids                                 
   RDEPT  =    2.240    core radius for aug-charge                              
                                                                                
   Atomic configuration                                                         
    9 entries                                                                   
     n  l   j            E        occ.                                          
     1  0  0.50     -5360.7193   2.0000                                         
     2  0  0.50      -598.4546   2.0000                                         
     2  1  1.50      -499.0155   6.0000                                         
     3  0  0.50       -66.5711   2.0000                                         
     3  1  1.50       -40.5282   6.0000                                         
     3  2  2.50        -2.4291   4.0000                                         
     4  0  0.50        -3.8743   1.0000                                         
     4  1  0.50        -2.7212   0.0000                                         
     4  3  2.50        -1.3606   0.0000                                         
   Description                                                                  
     l       E           TYP  RCUT    TYP  RCUT                                 
     2     -2.4290901     23  2.700                                             
     2     -3.7896727     23  2.700                                             
     0     -3.8742752     23  2.700                                             
     0     27.2116520     23  2.700                                             
     1     -2.7211652     23  2.700                                             
     1     27.2116520     23  2.700                                             
  local pseudopotential read in
  partial core-charges read in
  partial kinetic energy density read in
  atomic valenz-charges read in
  non local Contribution for L=           2  read in
    real space projection operators read in
  non local Contribution for L=           2  read in
    real space projection operators read in
  non local Contribution for L=           0  read in
    real space projection operators read in
  non local Contribution for L=           0  read in
    real space projection operators read in
  non local Contribution for L=           1  read in
    real space projection operators read in
  non local Contribution for L=           1  read in
    real space projection operators read in
    PAW grid and wavefunctions read in
 
   number of l-projection  operators is LMAX  =           6
   number of lm-projection operators is LMMAX =          18
 
 POTCAR:    PAW_PBE Fe 06Sep2000                  
   VRHFIN =Fe:  d7 s1                                                           
   LEXCH  = PE                                                                  
   EATOM  =   594.3153 eV,   43.6809 Ry                                         
                                                                                
   TITEL  = PAW_PBE Fe 06Sep2000                                                
   LULTRA =        F    use ultrasoft PP ?                                      
   IUNSCR =        1    unscreen: 0-lin 1-nonlin 2-no                           
   RPACOR =    2.000    partial core radius                                     
   POMASS =   55.847; ZVAL   =    8.000    mass and valenz                      
   RCORE  =    2.300    outmost cutoff radius                                   
   RWIGS  =    2.460; RWIGS  =    1.302    wigner-seitz radius (au A)           
   ENMAX  =  267.882; ENMIN  =  200.911 eV                                      
   RCLOC  =    1.701    cutoff for local pot                                    
   LCOR   =        T    correct aug charges                                     
   LPAW   =        T    paw PP                                                  
   EAUG   =  511.368                                                            
   DEXC   =    0.000                                                            
   RMAX   =    2.356    core radius for proj-oper                               
   RAUG   =    1.300    factor for augmentation sphere                          
   RDEP   =    2.442    radius for radial grids                                 
   RDEPT  =    1.890    core radius for aug-charge                              
                                                                                
   Atomic configuration                                                         
    9 entries                                                                   
     n  l   j            E        occ.                                          
     1  0  0.50     -6993.8440   2.0000                                         
     2  0  0.50      -814.6047   2.0000                                         
     2  1  1.50      -693.3689   6.0000                                         
     3  0  0.50       -89.4732   2.0000                                         
     3  1  1.50       -55.6373   6.0000                                         
     3  2  2.50        -3.8151   7.0000                                         
     4  0  0.50        -4.2551   1.0000                                         
     4  1  1.50        -3.4015   0.0000                                         
     4  3  2.50        -1.3606   0.0000                                         
   Description                                                                  
     l       E           TYP  RCUT    TYP  RCUT                                 
     2     -3.8151135     23  2.300                                             
     2     -5.1756961     23  2.300                                             
     0     -4.2550963     23  2.300                                             
     0      7.2035603     23  2.300                                             
     1     -2.7211652     23  2.300                                             
     1     18.4316424     23  2.300                                             
  local pseudopotential read in
  partial core-charges read in
  partial kinetic energy density read in
  atomic valenz-charges read in
  non local Contribution for L=           2  read in
    real space projection operators read in
  non local Contribution for L=           2  read in
    real space projection operators read in
  non local Contribution for L=           0  read in
    real space projection operators read in
  non local Contribution for L=           0  read in
    real space projection operators read in
  non local Contribution for L=           1  read in
    real space projection operators read in
  non local Contribution for L=           1  read in
    real space projection operators read in
    PAW grid and wavefunctions read in
 
   number of l-projection  operators is LMAX  =           6
   number of lm-projection operators is LMMAX =          18
 

 ----------------------------------------------------------------------------- 
|                                                                             |
|  ADVICE TO THIS USER RUNNING 'VASP/VAMP'   (HEAR YOUR MASTER'S VOICE ...):  |
|                                                                             |
|      You have a (more or less) 'large supercell' and for larger cells       |
|      it might be more efficient to use real space projection opertators     |
|      So try LREAL= Auto  in the INCAR   file.                               |
|      Mind:          For very  accurate calculation you might also keep the  |
|      reciprocal projection scheme          (i.e. LREAL=.FALSE.)             |
|                                                                             |
 ----------------------------------------------------------------------------- 

  PAW_PBE V 08Apr2002                   :
 energy of atom  1       EATOM= -170.8679
 kinetic energy error for atom=    0.0066 (will be added to EATOM!!)
  PAW_PBE Fe 06Sep2000                  :
 energy of atom  2       EATOM= -594.3153
 kinetic energy error for atom=    0.0346 (will be added to EATOM!!)
 
 
 POSCAR: EA0     6.719  6.719  6.719 70.02 70.02 
  positions in direct lattice
  No initial velocities read in
 exchange correlation table for  LEXCH =        8
   RHO(1)=    0.500       N(1)  =     2000
   RHO(2)=  100.500       N(2)  =     4000
 


--------------------------------------------------------------------------------------------------------


 ion  position               nearest neighbor table
   1  0.500  0.500  0.000-  12 2.32  13 2.32   7 2.45  10 2.45   8 2.45   5 2.45  16 2.54  17 2.54

   2  0.000  0.500  0.500-  12 2.32  13 2.32   6 2.45   9 2.45   8 2.45   5 2.45  16 2.54  17 2.54

   3  0.500  0.000  0.500-  12 2.32  13 2.32   7 2.45  10 2.45   9 2.45   6 2.45  16 2.54  17 2.54

   4  0.000  0.000  0.000-  14 1.97  15 1.97   5 2.27   8 2.27   6 2.27   9 2.27   7 2.27  10 2.27

   5  0.215  0.743  0.215-   4 2.27  13 2.36  14 2.37   2 2.45   1 2.45  19 2.72  18 2.72   9 2.72
                            10 2.72  11 2.87  17 3.15
   6  0.215  0.215  0.743-   4 2.27  13 2.36  14 2.37   2 2.45   3 2.45  19 2.72  20 2.72  10 2.72
                             8 2.72  11 2.87  17 3.15
   7  0.743  0.215  0.215-   4 2.27  13 2.36  14 2.37   1 2.45   3 2.45  20 2.72  18 2.72   9 2.72
                             8 2.72  11 2.87  17 3.15
   8  0.785  0.257  0.785-   4 2.27  12 2.36  15 2.37   2 2.45   1 2.45  19 2.72  18 2.72   6 2.72
                             7 2.72  11 2.87  16 3.15
   9  0.785  0.785  0.257-   4 2.27  12 2.36  15 2.37   2 2.45   3 2.45  19 2.72  20 2.72   7 2.72
                             5 2.72  11 2.87  16 3.15
  10  0.257  0.785  0.785-   4 2.27  12 2.36  15 2.37   1 2.45   3 2.45  20 2.72  18 2.72   6 2.72
                             5 2.72  11 2.87  16 3.15
  11  0.500  0.500  0.500-  12 1.85  13 1.85   6 2.87   9 2.87   8 2.87   5 2.87   7 2.87  10 2.87

  12  0.623  0.623  0.623-  11 1.85  16 1.90   3 2.32   2 2.32   1 2.32   8 2.36  10 2.36   9 2.36

  13  0.377  0.377  0.377-  11 1.85  17 1.90   3 2.32   2 2.32   1 2.32   5 2.36   7 2.36   6 2.36

  14  0.131  0.131  0.131-  17 1.82   4 1.97  20 2.29  19 2.29  18 2.29   5 2.37   7 2.37   6 2.37

  15  0.869  0.869  0.869-  16 1.82   4 1.97  20 2.29  19 2.29  18 2.29   8 2.37  10 2.37   9 2.37

  16  0.748  0.748  0.748-  15 1.82  12 1.90   3 2.54   1 2.54   2 2.54  18 2.57  20 2.57  19 2.57
                             8 3.15  10 3.15   9 3.15
  17  0.252  0.252  0.252-  14 1.82  13 1.90   3 2.54   1 2.54   2 2.54  18 2.57  20 2.57  19 2.57
                             5 3.15   7 3.15   6 3.15
  18  0.000  0.000  0.500-  14 2.29  15 2.29  16 2.57  17 2.57   7 2.72  10 2.72   8 2.72   5 2.72

  19  0.500  0.000  0.000-  14 2.29  15 2.29  16 2.57  17 2.57   5 2.72   8 2.72   6 2.72   9 2.72

  20  0.000  0.500  0.000-  14 2.29  15 2.29  16 2.57  17 2.57   7 2.72  10 2.72   9 2.72   6 2.72

 
  LATTYP: Found a trigonal (rhomboedric) cell.
 ALAT       =     6.7188150138
 COS(alpha) =     0.3416379221
  
  Lattice vectors:
  
 A1 = (   6.7188150000,   0.0000000000,   0.0000000000)
 A2 = (   2.2954020000,   6.3145550000,   0.0000000000)
 A3 = (   2.2954020000,   1.6079540000,   6.1063980000)


Analysis of symmetry for initial positions (statically):
=====================================================================
 Subroutine PRICEL returns:
 Original cell was already a primitive cell.
 

 Routine SETGRP: Setting up the symmetry group for a 
 trigonal (rhombohedral) supercell.


 Subroutine GETGRP returns: Found 12 space group operations
 (whereof 12 operations were pure point group operations)
 out of a pool of 12 trial point group operations.


The static configuration has the point symmetry D_3d.


Analysis of symmetry for dynamics (positions and initial velocities):
=====================================================================
 Subroutine PRICEL returns:
 Original cell was already a primitive cell.
 

 Routine SETGRP: Setting up the symmetry group for a 
 trigonal (rhombohedral) supercell.


 Subroutine GETGRP returns: Found 12 space group operations
 (whereof 12 operations were pure point group operations)
 out of a pool of 12 trial point group operations.


The dynamic configuration has the point symmetry D_3d.


 Subroutine INISYM returns: Found 12 space group operations
 (whereof 12 operations are pure point group operations),
 and found     1 'primitive' translations

 
 
 KPOINTS: EA                                      

Automatic generation of k-mesh.
Space group operators:
 irot       det(A)        alpha          n_x          n_y          n_z        tau_x        tau_y        tau_z
    1     1.000000     0.000000     1.000000     0.000000     0.000000     0.000000     0.000000     0.000000
    2    -1.000000     0.000000     1.000000     0.000000     0.000000     0.000000     0.000000     0.000000
    3     1.000000   180.000000     0.000000    -0.610474     0.792036     0.000000     0.000000     0.000000
    4    -1.000000   180.000000     0.000000    -0.610474     0.792036     0.000000     0.000000     0.000000
    5     1.000000   120.000000    -0.749061    -0.524725    -0.404440     0.000000     0.000000     0.000000
    6    -1.000000   120.000000    -0.749061    -0.524725    -0.404440     0.000000     0.000000     0.000000
    7     1.000000   180.000000    -0.573743     0.819035    -0.000000     0.000000     0.000000     0.000000
    8    -1.000000   180.000000    -0.573743     0.819035    -0.000000     0.000000     0.000000     0.000000
    9     1.000000   120.000000     0.749061     0.524725     0.404440     0.000000     0.000000     0.000000
   10    -1.000000   120.000000     0.749061     0.524725     0.404440     0.000000     0.000000     0.000000
   11     1.000000   180.000000    -0.573743     0.208561     0.792036     0.000000     0.000000     0.000000
   12    -1.000000   180.000000    -0.573743     0.208561     0.792036     0.000000     0.000000     0.000000
 
 Subroutine IBZKPT returns following result:
 ===========================================
 
 Found      4 irreducible k-points:
 
 Following reciprocal coordinates:
            Coordinates               Weight
  0.000000  0.000000  0.000000      1.000000
  0.500000 -0.000000 -0.000000      3.000000
  0.500000  0.500000 -0.000000      3.000000
  0.500000  0.500000  0.500000      1.000000
 
 Following cartesian coordinates:
            Coordinates               Weight
  0.000000  0.000000  0.000000      1.000000
  0.074418 -0.027052 -0.020850      3.000000
  0.074418  0.052131 -0.041701      3.000000
  0.074418  0.052131  0.040180      1.000000
 


--------------------------------------------------------------------------------------------------------




 Dimension of arrays:
   k-points           NKPTS =      4   k-points in BZ     NKDIM =      4   number of bands    NBANDS=     68
   number of dos      NEDOS =    301   number of ions     NIONS =     20
   non local maximal  LDIM  =      6   non local SUM 2l+1 LMDIM =     18
   total plane-waves  NPLWV =  21952
   max r-space proj   IRMAX =      1   max aug-charges    IRDMAX=   5337
   dimension x,y,z NGX =    28 NGY =   28 NGZ =   28
   dimension x,y,z NGXF=    56 NGYF=   56 NGZF=   56
   support grid    NGXF=    56 NGYF=   56 NGZF=   56
   ions per type =              17   3
   NGX,Y,Z   is equivalent  to a cutoff of   6.93,  6.93,  6.93 a.u.
   NGXF,Y,Z  is equivalent  to a cutoff of  13.86, 13.86, 13.86 a.u.

 SYSTEM =  unknown system                          
 POSCAR =  EA0     6.719  6.719  6.719 70.02 70.02 

 Startparameter for this run:
   NWRITE =      2    write-flag & timer
   PREC   = normal    normal or accurate (medium, high low for compatibility)
   ISTART =      0    job   : 0-new  1-cont  2-samecut
   ICHARG =      2    charge: 1-file 2-atom 10-const
   ISPIN  =      1    spin polarized calculation?
   LNONCOLLINEAR =      F non collinear calculations
   LSORBIT =      F    spin-orbit coupling
   INIWAV =      1    electr: 0-lowe 1-rand  2-diag
   LASPH  =      F    aspherical Exc in radial PAW
   METAGGA=      F    non-selfconsistent MetaGGA calc.

 Electronic Relaxation 1
   ENCUT  =  267.9 eV  19.69 Ry    4.44 a.u.   8.97  8.97  8.97*2*pi/ulx,y,z
   ENINI  =  267.9     initial cutoff
   ENAUG  =  511.4 eV  augmentation charge cutoff
   NELM   =     60;   NELMIN=  2; NELMDL= -5     # of ELM steps 
   EDIFF  = 0.1E-04   stopping-criterion for ELM
   LREAL  =      F    real-space projection
   NLSPLINE    = F    spline interpolate recip. space projectors
   LCOMPAT=      F    compatible to vasp.4.4
   GGA_COMPAT  = T    GGA compatible to vasp.4.4-vasp.4.6
   LMAXPAW     = -100 max onsite density
   LMAXMIX     =    2 max onsite mixed and CHGCAR
   VOSKOWN=      0    Vosko Wilk Nusair interpolation
   ROPT   =    0.00000   0.00000
 Ionic relaxation
   EDIFFG = -.1E-01   stopping-criterion for IOM
   NSW    =    500    number of steps for IOM
   NBLOCK =      1;   KBLOCK =    500    inner block; outer block 
   IBRION =      2    ionic relax: 0-MD 1-quasi-New 2-CG
   NFREE  =      1    steps in history (QN), initial steepest desc. (CG)
   ISIF   =      3    stress and relaxation
   IWAVPR =     11    prediction:  0-non 1-charg 2-wave 3-comb
   ISYM   =      2    0-nonsym 1-usesym 2-fastsym
   LCORR  =      T    Harris-Foulkes like correction to forces

   POTIM  = 0.5000    time-step for ionic-motion
   TEIN   =    0.0    initial temperature
   TEBEG  =    0.0;   TEEND  =   0.0 temperature during run
   SMASS  =  -3.00    Nose mass-parameter (am)
   estimated Nose-frequenzy (Omega)   =  0.10E-29 period in steps =****** mass=  -0.103E-26a.u.
   SCALEE = 1.0000    scale energy and forces
   NPACO  =    256;   APACO  = 16.0  distance and # of slots for P.C.
   PSTRESS=    0.0 pullay stress

  Mass of Ions in am
   POMASS =  50.94 55.85
  Ionic Valenz
   ZVAL   =   5.00  8.00
  Atomic Wigner-Seitz radii
   RWIGS  =  -1.00 -1.00
  virtual crystal weights 
   VCA    =   1.00  1.00
   NELECT =     109.0000    total number of electrons
   NUPDOWN=      -1.0000    fix difference up-down

 DOS related values:
   EMIN   =  10.00;   EMAX   =-10.00  energy-range for DOS
   EFERMI =   0.00
   ISMEAR =     0;   SIGMA  =   0.10  broadening in eV -4-tet -1-fermi 0-gaus

 Electronic relaxation 2 (details)
   IALGO  =     38    algorithm
   LDIAG  =      T    sub-space diagonalisation (order eigenvalues)
   LSUBROT=      F    optimize rotation matrix (better conditioning)
   TURBO    =      0    0=normal 1=particle mesh
   IRESTART =      0    0=no restart 2=restart with 2 vectors
   NREBOOT  =      0    no. of reboots
   NMIN     =      0    reboot dimension
   EREF     =   0.00    reference energy to select bands
   IMIX   =      4    mixing-type and parameters
     AMIX     =   0.40;   BMIX     =  1.00
     AMIX_MAG =   1.60;   BMIX_MAG =  1.00
     AMIN     =   0.10
     WC   =   100.;   INIMIX=   1;  MIXPRE=   1;  MAXMIX= -45

 Intra band minimization:
   WEIMIN = 0.0010     energy-eigenvalue tresh-hold
   EBREAK =  0.37E-07  absolut break condition
   DEPER  =   0.30     relativ break condition  

   TIME   =   0.40     timestep for ELM

  volume/ion in A,a.u.               =      12.95        87.42
  Fermi-wavevector in a.u.,A,eV,Ry     =   1.226714  2.318154 20.474433  1.504828
  Thomas-Fermi vector in A             =   2.361705
 
 Write flags
   LWAVE        =      F    write WAVECAR
   LDOWNSAMPLE  =      F    k-point downsampling of WAVECAR
   LCHARG       =      F    write CHGCAR
   LVTOT        =      F    write LOCPOT, total local potential
   LVHAR        =      F    write LOCPOT, Hartree potential only
   LELF         =      F    write electronic localiz. function (ELF)
   LORBIT       =      0    0 simple, 1 ext, 2 COOP (PROOUT), +10 PAW based schemes


 Dipole corrections
   LMONO  =      F    monopole corrections only (constant potential shift)
   LDIPOL =      F    correct potential (dipole corrections)
   IDIPOL =      0    1-x, 2-y, 3-z, 4-all directions 
   EPSILON=  1.0000000 bulk dielectric constant

 Exchange correlation treatment:
   GGA     =    --    GGA type
   LEXCH   =     8    internal setting for exchange type
   VOSKOWN=      0    Vosko Wilk Nusair interpolation
   LHFCALC =     F    Hartree Fock is set to
   LHFONE  =     F    Hartree Fock one center treatment
   AEXX    =    0.0000 exact exchange contribution

 Linear response parameters
   LEPSILON=     F    determine dielectric tensor
   LRPA    =     F    only Hartree local field effects (RPA)
   LNABLA  =     F    use nabla operator in PAW spheres
   LVEL    =     F    velocity operator in full k-point grid
   LINTERFAST=   F  fast interpolation
   KINTER  =     0    interpolate to denser k-point grid
   CSHIFT  =0.1000    complex shift for real part using Kramers Kronig
   OMEGAMAX=  -1.0    maximum frequency
   DEG_THRESHOLD= 0.2000000E-02 threshold for treating states as degnerate
   RTIME   =   -0.100 relaxation time in fs
  (WPLASMAI=    0.000 imaginary part of plasma frequency in eV, 0.658/RTIME)
   DFIELD  = 0.0000000 0.0000000 0.0000000 field for delta impulse in time
 
 Orbital magnetization related:
   ORBITALMAG=     F  switch on orbital magnetization
   LCHIMAG   =     F  perturbation theory with respect to B field
   DQ        =  0.001000  dq finite difference perturbation B field
   LLRAUG    =     F  two centre corrections for induced B field



--------------------------------------------------------------------------------------------------------


 conjugate gradient relaxation of ions
 charge density and potential will be updated during run
 non-spin polarized calculation
 Variant of blocked Davidson
 Davidson routine will perform the subspace rotation
 perform sub-space diagonalisation
    after iterative eigenvector-optimisation
 modified Broyden-mixing scheme, WC =      100.0
 initial mixing is a Kerker type mixing with AMIX =  0.4000 and BMIX =      1.0000
 Hartree-type preconditioning will be used
 using additional bands           13
 reciprocal scheme for non local part
 use partial core corrections
 calculate Harris-corrections to forces 
   (improved forces if not selfconsistent)
 use gradient corrections 
 use of overlap-Matrix (Vanderbilt PP)
 Gauss-broadening in eV      SIGMA  =   0.10


--------------------------------------------------------------------------------------------------------


  energy-cutoff  :      267.88
  volume of cell :      259.07
      direct lattice vectors                 reciprocal lattice vectors
     6.718815000  0.000000000  0.000000000     0.148835769 -0.054103246 -0.041700916
     2.295402000  6.314555000  0.000000000     0.000000000  0.158364287 -0.041700932
     2.295402000  1.607954000  6.106398000     0.000000000  0.000000000  0.163762663

  length of vectors
     6.718815000  6.718815014  6.718815591     0.163762676  0.163762679  0.163762663


 
 k-points in units of 2pi/SCALE and weight: EA                                      
   0.00000000  0.00000000  0.00000000       0.125
   0.07441788 -0.02705162 -0.02085046       0.375
   0.07441788  0.05213052 -0.04170092       0.375
   0.07441788  0.05213052  0.04018041       0.125
 
 k-points in reciprocal lattice and weights: EA                                      
   0.00000000  0.00000000  0.00000000       0.125
   0.50000000 -0.00000000 -0.00000000       0.375
   0.50000000  0.50000000 -0.00000000       0.375
   0.50000000  0.50000000  0.50000000       0.125
 
 position of ions in fractional coordinates (direct lattice) 
   0.50000000  0.50000000  0.00000000
   0.00000000  0.50000000  0.50000000
   0.50000000  0.00000000  0.50000000
   0.00000000  0.00000000  0.00000000
   0.21466500  0.74290000  0.21466500
   0.21466500  0.21466500  0.74290000
   0.74290000  0.21466500  0.21466500
   0.78533500  0.25710000  0.78533500
   0.78533500  0.78533500  0.25710000
   0.25710000  0.78533500  0.78533500
   0.50000000  0.50000000  0.50000000
   0.62284000  0.62284000  0.62284000
   0.37716000  0.37716000  0.37716000
   0.13079900  0.13079900  0.13079900
   0.86920100  0.86920100  0.86920100
   0.74840000  0.74840000  0.74840000
   0.25160000  0.25160000  0.25160000
   0.00000000  0.00000000  0.50000000
   0.50000000  0.00000000  0.00000000
   0.00000000  0.50000000  0.00000000
 
 position of ions in cartesian coordinates  (Angst):
   4.50710850  3.15727750  0.00000000
   2.29540200  3.96125450  3.05319900
   4.50710850  0.80397700  3.05319900
   0.00000000  0.00000000  0.00000000
   3.64029104  5.03625435  1.31082993
   3.64029104  2.55006298  4.53644307
   5.97689260  1.70068539  1.31082993
   7.66932796  2.88625465  4.79556807
   7.66932796  5.37244602  1.56995493
   5.33272640  6.22182361  4.79556807
   5.65480950  3.96125450  3.05319900
   7.04408310  4.93445551  3.80330893
   4.26553590  2.98805349  2.30308907
   1.47928686  1.03625625  0.79871075
   9.83033214  6.88625275  5.30768725
   8.46411886  5.92920574  4.57002826
   2.84550014  1.99330326  1.53636974
   1.14770100  0.80397700  3.05319900
   3.35940750  0.00000000  0.00000000
   1.14770100  3.15727750  0.00000000
 


--------------------------------------------------------------------------------------------------------


 k-point  1 :   0.0000 0.0000 0.0000  plane waves:    2575
 k-point  2 :   0.5000-0.0000-0.0000  plane waves:    2574
 k-point  3 :   0.5000 0.5000-0.0000  plane waves:    2588
 k-point  4 :   0.5000 0.5000 0.5000  plane waves:    2612

 maximum and minimum number of plane-waves per node :      2612     2574

 maximum number of plane-waves:      2612
 maximum index in each direction: 
   IXMAX=    8   IYMAX=    8   IZMAX=    8
   IXMIN=   -9   IYMIN=   -9   IZMIN=   -9


 serial   3D FFT for wavefunctions
 parallel 3D FFT for charge:
    minimum data exchange during FFTs selected (reduces bandwidth)


 total amount of memory used by VASP MPI-rank0    42418. kBytes
=======================================================================

   base      :      30000. kBytes
   nonl-proj :       3844. kBytes
   fftplans  :       1619. kBytes
   grid      :       3411. kBytes
   one-center:        311. kBytes
   wavefun   :       3233. kBytes
 
     INWAV:  cpu time    0.0000: real time    0.0000
 Broyden mixing: mesh for mixing (old mesh)
   NGX = 17   NGY = 17   NGZ = 17
  (NGX  = 56   NGY  = 56   NGZ  = 56)
  gives a total of   4913 points

 initial charge density was supplied:
 charge density of overlapping atoms calculated
 number of electron     109.0000000 magnetization 
 keeping initial charge density in first step


--------------------------------------------------------------------------------------------------------


 Maximum index for augmentation-charges         1257 (set IRDMAX)


--------------------------------------------------------------------------------------------------------


 First call to EWALD:  gamma=   0.278
 Maximum number of real-space cells 3x 3x 3
 Maximum number of reciprocal cells 3x 3x 3

    FEWALD:  cpu time    0.0027: real time    0.0027


--------------------------------------- Iteration      1(   1)  ---------------------------------------


    POTLOK:  cpu time    0.0380: real time    0.0381
    SETDIJ:  cpu time    0.0175: real time    0.0175
     EDDAV:  cpu time    0.7134: real time    0.7143
       DOS:  cpu time    0.0007: real time    0.0007
    --------------------------------------------
      LOOP:  cpu time    0.7696: real time    0.7706

 eigenvalue-minimisations  :   544
 total energy-change (2. order) : 0.6708493E+03  (-0.2369354E+04)
 number of electron     109.0000000 magnetization 
 augmentation part      109.0000000 magnetization 

 Free energy of the ion-electron system (eV)
  ---------------------------------------------------
  alpha Z        PSCENC =       552.45266642
  Ewald energy   TEWEN  =     -5075.84684447
  -Hartree energ DENC   =      -913.80832050
  -exchange      EXHF   =         0.00000000
  -V(xc)+E(xc)   XCENC  =      -770.71737334
  PAW double counting   =      5171.05454107    -4356.08836938
  entropy T*S    EENTRO =        -0.06650939
  eigenvalues    EBANDS =      1376.38525457
  atomic energy  EATOM  =      4687.48422623
  Solvation  Ediel_sol  =         0.00000000
  ---------------------------------------------------
  free energy    TOTEN  =       670.84927122 eV

  energy without entropy =      670.91578061  energy(sigma->0) =      670.88252591


--------------------------------------------------------------------------------------------------------




--------------------------------------- Iteration      1(   2)  ---------------------------------------


     EDDAV:  cpu time    0.7395: real time    0.7404
       DOS:  cpu time    0.0008: real time    0.0008
    --------------------------------------------
      LOOP:  cpu time    0.7403: real time    0.7412

 eigenvalue-minimisations  :   544
 total energy-change (2. order) :-0.7184039E+03  (-0.6917560E+03)
 number of electron     109.0000000 magnetization 
 augmentation part      109.0000000 magnetization 

 Free energy of the ion-electron system (eV)
  ---------------------------------------------------
  alpha Z        PSCENC =       552.45266642
  Ewald energy   TEWEN  =     -5075.84684447
  -Hartree energ DENC   =      -913.80832050
  -exchange      EXHF   =         0.00000000
  -V(xc)+E(xc)   XCENC  =      -770.71737334
  PAW double counting   =      5171.05454107    -4356.08836938
  entropy T*S    EENTRO =        -0.08583386
  eigenvalues    EBANDS =       658.00071242
  atomic energy  EATOM  =      4687.48422623
  Solvation  Ediel_sol  =         0.00000000
  ---------------------------------------------------
  free energy    TOTEN  =       -47.55459541 eV

  energy without entropy =      -47.46876155  energy(sigma->0) =      -47.51167848


--------------------------------------------------------------------------------------------------------




--------------------------------------- Iteration      1(   3)  ---------------------------------------


     EDDAV:  cpu time    1.0515: real time    1.0530
       DOS:  cpu time    0.0008: real time    0.0008
    --------------------------------------------
      LOOP:  cpu time    1.0523: real time    1.0537

 eigenvalue-minimisations  :   908
 total energy-change (2. order) :-0.1223149E+03  (-0.1154825E+03)
 number of electron     109.0000000 magnetization 
 augmentation part      109.0000000 magnetization 

 Free energy of the ion-electron system (eV)
  ---------------------------------------------------
  alpha Z        PSCENC =       552.45266642
  Ewald energy   TEWEN  =     -5075.84684447
  -Hartree energ DENC   =      -913.80832050
  -exchange      EXHF   =         0.00000000
  -V(xc)+E(xc)   XCENC  =      -770.71737334
  PAW double counting   =      5171.05454107    -4356.08836938
  entropy T*S    EENTRO =        -0.07724192
  eigenvalues    EBANDS =       535.67722977
  atomic energy  EATOM  =      4687.48422623
  Solvation  Ediel_sol  =         0.00000000
  ---------------------------------------------------
  free energy    TOTEN  =      -169.86948612 eV

  energy without entropy =     -169.79224420  energy(sigma->0) =     -169.83086516


--------------------------------------------------------------------------------------------------------




--------------------------------------- Iteration      1(   4)  ---------------------------------------


     EDDAV:  cpu time    1.0258: real time    1.0270
       DOS:  cpu time    0.0008: real time    0.0008
    --------------------------------------------
      LOOP:  cpu time    1.0266: real time    1.0279

 eigenvalue-minimisations  :   872
 total energy-change (2. order) :-0.1280897E+02  (-0.1220894E+02)
 number of electron     109.0000000 magnetization 
 augmentation part      109.0000000 magnetization 

 Free energy of the ion-electron system (eV)
  ---------------------------------------------------
  alpha Z        PSCENC =       552.45266642
  Ewald energy   TEWEN  =     -5075.84684447
  -Hartree energ DENC   =      -913.80832050
  -exchange      EXHF   =         0.00000000
  -V(xc)+E(xc)   XCENC  =      -770.71737334
  PAW double counting   =      5171.05454107    -4356.08836938
  entropy T*S    EENTRO =        -0.08860851
  eigenvalues    EBANDS =       522.87962442
  atomic energy  EATOM  =      4687.48422623
  Solvation  Ediel_sol  =         0.00000000
  ---------------------------------------------------
  free energy    TOTEN  =      -182.67845806 eV

  energy without entropy =     -182.58984955  energy(sigma->0) =     -182.63415380


--------------------------------------------------------------------------------------------------------




--------------------------------------- Iteration      1(   5)  ---------------------------------------


     EDDAV:  cpu time    1.0869: real time    1.0884
       DOS:  cpu time    0.0009: real time    0.0009
    CHARGE:  cpu time    0.0419: real time    0.0420
    MIXING:  cpu time    0.0017: real time    0.0017
    --------------------------------------------
      LOOP:  cpu time    1.1315: real time    1.1330

 eigenvalue-minimisations  :   896
 total energy-change (2. order) :-0.8728384E+00  (-0.8390082E+00)
 number of electron     109.0000320 magnetization 
 augmentation part       39.5642289 magnetization 

 Broyden mixing:
  rms(total) = 0.70334E+01    rms(broyden)= 0.70320E+01
  rms(prec ) = 0.11737E+02
  weight for this iteration     100.00

 Free energy of the ion-electron system (eV)
  ---------------------------------------------------
  alpha Z        PSCENC =       552.45266642
  Ewald energy   TEWEN  =     -5075.84684447
  -Hartree energ DENC   =      -913.80832050
  -exchange      EXHF   =         0.00000000
  -V(xc)+E(xc)   XCENC  =      -770.71737334
  PAW double counting   =      5171.05454107    -4356.08836938
  entropy T*S    EENTRO =        -0.08956855
  eigenvalues    EBANDS =       522.00774608
  atomic energy  EATOM  =      4687.48422623
  Solvation  Ediel_sol  =         0.00000000
  ---------------------------------------------------
  free energy    TOTEN  =      -183.55129644 eV

  energy without entropy =     -183.46172789  energy(sigma->0) =     -183.50651216


--------------------------------------------------------------------------------------------------------




--------------------------------------- Iteration      1(   6)  ---------------------------------------


    POTLOK:  cpu time    0.0346: real time    0.0347
    SETDIJ:  cpu time    0.0180: real time    0.0180
     EDDAV:  cpu time    1.2459: real time    1.2476
       DOS:  cpu time    0.0007: real time    0.0007
    CHARGE:  cpu time    0.0364: real time    0.0364
    MIXING:  cpu time    0.0017: real time    0.0017
    --------------------------------------------
      LOOP:  cpu time    1.3373: real time    1.3391

 eigenvalue-minimisations  :  1056
 total energy-change (2. order) :-0.1479321E+03  (-0.2418354E+03)
 number of electron     109.0001239 magnetization 
 augmentation part       50.7377343 magnetization 

 Broyden mixing:
  rms(total) = 0.28912E+02    rms(broyden)= 0.28911E+02
  rms(prec ) = 0.33268E+02
  weight for this iteration     100.00

 eigenvalues of (default mixing * dielectric matrix)
  average eigenvalue GAMMA=   0.0628
  0.0628

 Free energy of the ion-electron system (eV)
  ---------------------------------------------------
  alpha Z        PSCENC =       552.45266642
  Ewald energy   TEWEN  =     -5075.84684447
  -Hartree energ DENC   =      -742.22098872
  -exchange      EXHF   =         0.00000000
  -V(xc)+E(xc)   XCENC  =      -776.93770991
  PAW double counting   =      6727.22361497    -5900.21475152
  entropy T*S    EENTRO =        -0.07537578
  eigenvalues    EBANDS =       196.65175934
  atomic energy  EATOM  =      4687.48422623
  Solvation  Ediel_sol  =         0.00000000
  ---------------------------------------------------
  free energy    TOTEN  =      -331.48340344 eV

  energy without entropy =     -331.40802766  energy(sigma->0) =     -331.44571555


--------------------------------------------------------------------------------------------------------




--------------------------------------- Iteration      1(   7)  ---------------------------------------


    POTLOK:  cpu time    0.0324: real time    0.0325
    SETDIJ:  cpu time    0.0176: real time    0.0176
     EDDAV:  cpu time    1.0770: real time    1.0783
       DOS:  cpu time    0.0008: real time    0.0008
    CHARGE:  cpu time    0.0382: real time    0.0382
    MIXING:  cpu time    0.0017: real time    0.0017
    --------------------------------------------
      LOOP:  cpu time    1.1677: real time    1.1691

 eigenvalue-minimisations  :   912
 total energy-change (2. order) : 0.8026424E+02  (-0.7599923E+02)
 number of electron     109.0001135 magnetization 
 augmentation part       48.7651281 magnetization 

 Broyden mixing:
  rms(total) = 0.82660E+01    rms(broyden)= 0.82655E+01
  rms(prec ) = 0.14938E+02
  weight for this iteration     100.00

 eigenvalues of (default mixing * dielectric matrix)
  average eigenvalue GAMMA=   0.3361
  0.3361  0.3361

 Free energy of the ion-electron system (eV)
  ---------------------------------------------------
  alpha Z        PSCENC =       552.45266642
  Ewald energy   TEWEN  =     -5075.84684447
  -Hartree energ DENC   =      -770.64610062
  -exchange      EXHF   =         0.00000000
  -V(xc)+E(xc)   XCENC  =      -774.50080063
  PAW double counting   =      7202.69578440    -6389.52427138
  entropy T*S    EENTRO =        -0.02193059
  eigenvalues    EBANDS =       316.68811173
  atomic energy  EATOM  =      4687.48422623
  Solvation  Ediel_sol  =         0.00000000
  ---------------------------------------------------
  free energy    TOTEN  =      -251.21915890 eV

  energy without entropy =     -251.19722832  energy(sigma->0) =     -251.20819361


--------------------------------------------------------------------------------------------------------




--------------------------------------- Iteration      1(   8)  ---------------------------------------


    POTLOK:  cpu time    0.0323: real time    0.0323
    SETDIJ:  cpu time    0.0176: real time    0.0176
     EDDAV:  cpu time    1.0808: real time    1.0821
       DOS:  cpu time    0.0009: real time    0.0009
    CHARGE:  cpu time    0.0391: real time    0.0392
    MIXING:  cpu time    0.0018: real time    0.0018
    --------------------------------------------
      LOOP:  cpu time    1.1725: real time    1.1740

 eigenvalue-minimisations  :   904
 total energy-change (2. order) : 0.9629712E+02  (-0.3564518E+02)
 number of electron     109.0000832 magnetization 
 augmentation part       46.5874311 magnetization 

 Broyden mixing:
  rms(total) = 0.32985E+01    rms(broyden)= 0.32974E+01
  rms(prec ) = 0.64432E+01
  weight for this iteration     100.00

 eigenvalues of (default mixing * dielectric matrix)
  average eigenvalue GAMMA=   0.4517
  0.5767  0.3893  0.3893

 Free energy of the ion-electron system (eV)
  ---------------------------------------------------
  alpha Z        PSCENC =       552.45266642
  Ewald energy   TEWEN  =     -5075.84684447
  -Hartree energ DENC   =      -820.29338307
  -exchange      EXHF   =         0.00000000
  -V(xc)+E(xc)   XCENC  =      -770.87310878
  PAW double counting   =      7372.35106345    -6571.24230859
  entropy T*S    EENTRO =        -0.06841827
  eigenvalues    EBANDS =       471.11406687
  atomic energy  EATOM  =      4687.48422623
  Solvation  Ediel_sol  =         0.00000000
  ---------------------------------------------------
  free energy    TOTEN  =      -154.92204021 eV

  energy without entropy =     -154.85362194  energy(sigma->0) =     -154.88783108


--------------------------------------------------------------------------------------------------------




--------------------------------------- Iteration      1(   9)  ---------------------------------------


    POTLOK:  cpu time    0.0330: real time    0.0331
    SETDIJ:  cpu time    0.0173: real time    0.0173
     EDDAV:  cpu time    1.1395: real time    1.1409
       DOS:  cpu time    0.0009: real time    0.0009
    CHARGE:  cpu time    0.0384: real time    0.0384
    MIXING:  cpu time    0.0019: real time    0.0019
    --------------------------------------------
      LOOP:  cpu time    1.2311: real time    1.2326

 eigenvalue-minimisations  :   960
 total energy-change (2. order) : 0.1613944E+01  (-0.1284466E+02)
 number of electron     109.0000639 magnetization 
 augmentation part       45.2610546 magnetization 

 Broyden mixing:
  rms(total) = 0.25051E+01    rms(broyden)= 0.25038E+01
  rms(prec ) = 0.45069E+01
  weight for this iteration     100.00

 eigenvalues of (default mixing * dielectric matrix)
  average eigenvalue GAMMA=   0.5654
  1.3490  0.3541  0.3541  0.2044

 Free energy of the ion-electron system (eV)
  ---------------------------------------------------
  alpha Z        PSCENC =       552.45266642
  Ewald energy   TEWEN  =     -5075.84684447
  -Hartree energ DENC   =      -829.04514270
  -exchange      EXHF   =         0.00000000
  -V(xc)+E(xc)   XCENC  =      -770.26059737
  PAW double counting   =      7565.62180282    -6765.60412511
  entropy T*S    EENTRO =        -0.13244177
  eigenvalues    EBANDS =       482.02235969
  atomic energy  EATOM  =      4687.48422623
  Solvation  Ediel_sol  =         0.00000000
  ---------------------------------------------------
  free energy    TOTEN  =      -153.30809626 eV

  energy without entropy =     -153.17565449  energy(sigma->0) =     -153.24187538


--------------------------------------------------------------------------------------------------------




--------------------------------------- Iteration      1(  10)  ---------------------------------------


    POTLOK:  cpu time    0.0325: real time    0.0325
    SETDIJ:  cpu time    0.0172: real time    0.0173
     EDDAV:  cpu time    1.0686: real time    1.0700
       DOS:  cpu time    0.0009: real time    0.0009
    CHARGE:  cpu time    0.0441: real time    0.0442
    MIXING:  cpu time    0.0021: real time    0.0021
    --------------------------------------------
      LOOP:  cpu time    1.1655: real time    1.1670

 eigenvalue-minimisations  :   912
 total energy-change (2. order) :-0.2119995E+01  (-0.9068591E+01)
 number of electron     109.0000684 magnetization 
 augmentation part       45.2143847 magnetization 

 Broyden mixing:
  rms(total) = 0.17965E+01    rms(broyden)= 0.17954E+01
  rms(prec ) = 0.37449E+01
  weight for this iteration     100.00

 eigenvalues of (default mixing * dielectric matrix)
  average eigenvalue GAMMA=   0.5920
  1.6861  0.3704  0.3704  0.3282  0.2047

 Free energy of the ion-electron system (eV)
  ---------------------------------------------------
  alpha Z        PSCENC =       552.45266642
  Ewald energy   TEWEN  =     -5075.84684447
  -Hartree energ DENC   =      -814.28568801
  -exchange      EXHF   =         0.00000000
  -V(xc)+E(xc)   XCENC  =      -769.88662858
  PAW double counting   =      8189.12802266    -7390.27238178
  entropy T*S    EENTRO =        -0.12882900
  eigenvalues    EBANDS =       465.92736488
  atomic energy  EATOM  =      4687.48422623
  Solvation  Ediel_sol  =         0.00000000
  ---------------------------------------------------
  free energy    TOTEN  =      -155.42809164 eV

  energy without entropy =     -155.29926264  energy(sigma->0) =     -155.36367714


--------------------------------------------------------------------------------------------------------




--------------------------------------- Iteration      1(  11)  ---------------------------------------


    POTLOK:  cpu time    0.0329: real time    0.0329
    SETDIJ:  cpu time    0.0166: real time    0.0167
     EDDAV:  cpu time    1.1421: real time    1.1434
       DOS:  cpu time    0.0009: real time    0.0009
    CHARGE:  cpu time    0.0375: real time    0.0376
    MIXING:  cpu time    0.0020: real time    0.0020
    --------------------------------------------
      LOOP:  cpu time    1.2319: real time    1.2333

 eigenvalue-minimisations  :   984
 total energy-change (2. order) : 0.5229722E+00  (-0.3983908E+01)
 number of electron     109.0000480 magnetization 
 augmentation part       44.6000279 magnetization 

 Broyden mixing:
  rms(total) = 0.26924E+01    rms(broyden)= 0.26894E+01
  rms(prec ) = 0.56018E+01
  weight for this iteration     100.00

 eigenvalues of (default mixing * dielectric matrix)
  average eigenvalue GAMMA=   0.5622
  1.7824  0.4080  0.4080  0.3990  0.2111  0.1643

 Free energy of the ion-electron system (eV)
  ---------------------------------------------------
  alpha Z        PSCENC =       552.45266642
  Ewald energy   TEWEN  =     -5075.84684447
  -Hartree energ DENC   =      -822.63603700
  -exchange      EXHF   =         0.00000000
  -V(xc)+E(xc)   XCENC  =      -768.92340295
  PAW double counting   =      8736.83468793    -7941.50474427
  entropy T*S    EENTRO =        -0.10220461
  eigenvalues    EBANDS =       477.33653332
  atomic energy  EATOM  =      4687.48422623
  Solvation  Ediel_sol  =         0.00000000
  ---------------------------------------------------
  free energy    TOTEN  =      -154.90511940 eV

  energy without entropy =     -154.80291479  energy(sigma->0) =     -154.85401710


--------------------------------------------------------------------------------------------------------




--------------------------------------- Iteration      1(  12)  ---------------------------------------


    POTLOK:  cpu time    0.0319: real time    0.0319
    SETDIJ:  cpu time    0.0174: real time    0.0174
     EDDAV:  cpu time    1.1894: real time    1.1913
       DOS:  cpu time    0.0010: real time    0.0009
    CHARGE:  cpu time    0.0371: real time    0.0371
    MIXING:  cpu time    0.0022: real time    0.0022
    --------------------------------------------
      LOOP:  cpu time    1.2789: real time    1.2809

 eigenvalue-minimisations  :  1000
 total energy-change (2. order) : 0.3030300E+01  (-0.1452976E+01)
 number of electron     109.0000679 magnetization 
 augmentation part       45.2796478 magnetization 

 Broyden mixing:
  rms(total) = 0.10061E+01    rms(broyden)= 0.99828E+00
  rms(prec ) = 0.15204E+01
  weight for this iteration     100.00

 eigenvalues of (default mixing * dielectric matrix)
  average eigenvalue GAMMA=   0.5601
  1.9968  0.5244  0.3926  0.3926  0.2319  0.2319  0.1500

 Free energy of the ion-electron system (eV)
  ---------------------------------------------------
  alpha Z        PSCENC =       552.45266642
  Ewald energy   TEWEN  =     -5075.84684447
  -Hartree energ DENC   =      -811.44473918
  -exchange      EXHF   =         0.00000000
  -V(xc)+E(xc)   XCENC  =      -769.37211368
  PAW double counting   =      8841.70663461    -8046.86610669
  entropy T*S    EENTRO =        -0.11458837
  eigenvalues    EBANDS =       470.12604554
  atomic energy  EATOM  =      4687.48422623
  Solvation  Ediel_sol  =         0.00000000
  ---------------------------------------------------
  free energy    TOTEN  =      -151.87481959 eV

  energy without entropy =     -151.76023122  energy(sigma->0) =     -151.81752541


--------------------------------------------------------------------------------------------------------




--------------------------------------- Iteration      1(  13)  ---------------------------------------


    POTLOK:  cpu time    0.0327: real time    0.0328
    SETDIJ:  cpu time    0.0176: real time    0.0176
     EDDAV:  cpu time    1.1439: real time    1.1453
       DOS:  cpu time    0.0009: real time    0.0009
    CHARGE:  cpu time    0.0391: real time    0.0391
    MIXING:  cpu time    0.0025: real time    0.0025
    --------------------------------------------
      LOOP:  cpu time    1.2367: real time    1.2382

 eigenvalue-minimisations  :   928
 total energy-change (2. order) : 0.2023379E+00  (-0.5288899E+00)
 number of electron     109.0000721 magnetization 
 augmentation part       45.6827632 magnetization 

 Broyden mixing:
  rms(total) = 0.99126E+00    rms(broyden)= 0.99091E+00
  rms(prec ) = 0.15574E+01
  weight for this iteration     100.00

 eigenvalues of (default mixing * dielectric matrix)
  average eigenvalue GAMMA=   0.5625
  2.2013  0.5795  0.3938  0.3938  0.2949  0.2949  0.1935  0.1486

 Free energy of the ion-electron system (eV)
  ---------------------------------------------------
  alpha Z        PSCENC =       552.45266642
  Ewald energy   TEWEN  =     -5075.84684447
  -Hartree energ DENC   =      -807.36179618
  -exchange      EXHF   =         0.00000000
  -V(xc)+E(xc)   XCENC  =      -769.29545344
  PAW double counting   =      9033.82263397    -8239.42533108
  entropy T*S    EENTRO =        -0.10739809
  eigenvalues    EBANDS =       466.60481498
  atomic energy  EATOM  =      4687.48422623
  Solvation  Ediel_sol  =         0.00000000
  ---------------------------------------------------
  free energy    TOTEN  =      -151.67248166 eV

  energy without entropy =     -151.56508357  energy(sigma->0) =     -151.61878262


--------------------------------------------------------------------------------------------------------




--------------------------------------- Iteration      1(  14)  ---------------------------------------


    POTLOK:  cpu time    0.0334: real time    0.0335
    SETDIJ:  cpu time    0.0175: real time    0.0175
     EDDAV:  cpu time    1.1015: real time    1.1029
       DOS:  cpu time    0.0009: real time    0.0009
    CHARGE:  cpu time    0.0372: real time    0.0372
    MIXING:  cpu time    0.0025: real time    0.0025
    --------------------------------------------
      LOOP:  cpu time    1.1929: real time    1.1944

 eigenvalue-minimisations  :   920
 total energy-change (2. order) : 0.2285531E+00  (-0.9972909E-01)
 number of electron     109.0000694 magnetization 
 augmentation part       45.6892015 magnetization 

 Broyden mixing:
  rms(total) = 0.63399E+00    rms(broyden)= 0.63389E+00
  rms(prec ) = 0.80548E+00
  weight for this iteration     100.00

 eigenvalues of (default mixing * dielectric matrix)
  average eigenvalue GAMMA=   0.6629
  2.5446  1.1130  0.4101  0.4101  0.4436  0.4436  0.2471  0.2024  0.1518

 Free energy of the ion-electron system (eV)
  ---------------------------------------------------
  alpha Z        PSCENC =       552.45266642
  Ewald energy   TEWEN  =     -5075.84684447
  -Hartree energ DENC   =      -807.69991586
  -exchange      EXHF   =         0.00000000
  -V(xc)+E(xc)   XCENC  =      -769.01604061
  PAW double counting   =      9200.79492207    -8406.32581073
  entropy T*S    EENTRO =        -0.12236247
  eigenvalues    EBANDS =       466.83523088
  atomic energy  EATOM  =      4687.48422623
  Solvation  Ediel_sol  =         0.00000000
  ---------------------------------------------------
  free energy    TOTEN  =      -151.44392854 eV

  energy without entropy =     -151.32156607  energy(sigma->0) =     -151.38274731


--------------------------------------------------------------------------------------------------------




--------------------------------------- Iteration      1(  15)  ---------------------------------------


    POTLOK:  cpu time    0.0314: real time    0.0314
    SETDIJ:  cpu time    0.0172: real time    0.0172
     EDDAV:  cpu time    1.1554: real time    1.1569
       DOS:  cpu time    0.0009: real time    0.0009
    CHARGE:  cpu time    0.0370: real time    0.0371
    MIXING:  cpu time    0.0024: real time    0.0024
    --------------------------------------------
      LOOP:  cpu time    1.2442: real time    1.2459

 eigenvalue-minimisations  :   984
 total energy-change (2. order) : 0.3009202E-02  (-0.7160835E-01)
 number of electron     109.0000671 magnetization 
 augmentation part       45.6766118 magnetization 

 Broyden mixing:
  rms(total) = 0.49747E+00    rms(broyden)= 0.49716E+00
  rms(prec ) = 0.64423E+00
  weight for this iteration     100.00

 eigenvalues of (default mixing * dielectric matrix)
  average eigenvalue GAMMA=   0.7042
  2.1085  2.1085  0.7026  0.4065  0.4065  0.3568  0.3568  0.2419  0.2034  0.1510

 Free energy of the ion-electron system (eV)
  ---------------------------------------------------
  alpha Z        PSCENC =       552.45266642
  Ewald energy   TEWEN  =     -5075.84684447
  -Hartree energ DENC   =      -808.64751761
  -exchange      EXHF   =         0.00000000
  -V(xc)+E(xc)   XCENC  =      -768.77157147
  PAW double counting   =      9333.83469283    -8538.70745094
  entropy T*S    EENTRO =        -0.13108006
  eigenvalues    EBANDS =       466.89195973
  atomic energy  EATOM  =      4687.48422623
  Solvation  Ediel_sol  =         0.00000000
  ---------------------------------------------------
  free energy    TOTEN  =      -151.44091934 eV

  energy without entropy =     -151.30983928  energy(sigma->0) =     -151.37537931


--------------------------------------------------------------------------------------------------------




--------------------------------------- Iteration      1(  16)  ---------------------------------------


    POTLOK:  cpu time    0.0324: real time    0.0324
    SETDIJ:  cpu time    0.0175: real time    0.0175
     EDDAV:  cpu time    1.1022: real time    1.1036
       DOS:  cpu time    0.0009: real time    0.0009
    CHARGE:  cpu time    0.0390: real time    0.0390
    MIXING:  cpu time    0.0024: real time    0.0024
    --------------------------------------------
      LOOP:  cpu time    1.1945: real time    1.1960

 eigenvalue-minimisations  :   928
 total energy-change (2. order) : 0.1605424E-01  (-0.3665389E-01)
 number of electron     109.0000662 magnetization 
 augmentation part       45.5619728 magnetization 

 Broyden mixing:
  rms(total) = 0.41817E+00    rms(broyden)= 0.41814E+00
  rms(prec ) = 0.55801E+00
  weight for this iteration     100.00

 eigenvalues of (default mixing * dielectric matrix)
  average eigenvalue GAMMA=   0.6909
  2.1609  2.1609  0.7579  0.4071  0.4071  0.4049  0.4049  0.3000  0.2429  0.2021
  0.1510

 Free energy of the ion-electron system (eV)
  ---------------------------------------------------
  alpha Z        PSCENC =       552.45266642
  Ewald energy   TEWEN  =     -5075.84684447
  -Hartree energ DENC   =      -810.36427087
  -exchange      EXHF   =         0.00000000
  -V(xc)+E(xc)   XCENC  =      -768.78177896
  PAW double counting   =      9259.19747342    -8463.24541318
  entropy T*S    EENTRO =        -0.13254546
  eigenvalues    EBANDS =       467.81162177
  atomic energy  EATOM  =      4687.48422623
  Solvation  Ediel_sol  =         0.00000000
  ---------------------------------------------------
  free energy    TOTEN  =      -151.42486511 eV

  energy without entropy =     -151.29231964  energy(sigma->0) =     -151.35859237


--------------------------------------------------------------------------------------------------------




--------------------------------------- Iteration      1(  17)  ---------------------------------------


    POTLOK:  cpu time    0.0327: real time    0.0328
    SETDIJ:  cpu time    0.0174: real time    0.0174
     EDDAV:  cpu time    1.2524: real time    1.2544
       DOS:  cpu time    0.0009: real time    0.0009
    CHARGE:  cpu time    0.0397: real time    0.0397
    MIXING:  cpu time    0.0026: real time    0.0027
    --------------------------------------------
      LOOP:  cpu time    1.3458: real time    1.3479

 eigenvalue-minimisations  :  1048
 total energy-change (2. order) : 0.1668515E-01  (-0.2319233E-01)
 number of electron     109.0000683 magnetization 
 augmentation part       45.6444330 magnetization 

 Broyden mixing:
  rms(total) = 0.34763E+00    rms(broyden)= 0.34733E+00
  rms(prec ) = 0.39463E+00
  weight for this iteration     100.00

 eigenvalues of (default mixing * dielectric matrix)
  average eigenvalue GAMMA=   0.7147
  2.2898  2.2898  1.0088  0.5654  0.4070  0.4070  0.4283  0.3259  0.1510  0.2022
  0.2465  0.2548

 Free energy of the ion-electron system (eV)
  ---------------------------------------------------
  alpha Z        PSCENC =       552.45266642
  Ewald energy   TEWEN  =     -5075.84684447
  -Hartree energ DENC   =      -809.61816320
  -exchange      EXHF   =         0.00000000
  -V(xc)+E(xc)   XCENC  =      -768.86613958
  PAW double counting   =      9228.87205824    -8432.68661920
  entropy T*S    EENTRO =        -0.12854531
  eigenvalues    EBANDS =       466.92918091
  atomic energy  EATOM  =      4687.48422623
  Solvation  Ediel_sol  =         0.00000000
  ---------------------------------------------------
  free energy    TOTEN  =      -151.40817996 eV

  energy without entropy =     -151.27963465  energy(sigma->0) =     -151.34390730


--------------------------------------------------------------------------------------------------------




--------------------------------------- Iteration      1(  18)  ---------------------------------------


    POTLOK:  cpu time    0.0327: real time    0.0329
    SETDIJ:  cpu time    0.0176: real time    0.0176
     EDDAV:  cpu time    1.1720: real time    1.1735
       DOS:  cpu time    0.0009: real time    0.0009
    CHARGE:  cpu time    0.0378: real time    0.0378
    MIXING:  cpu time    0.0027: real time    0.0027
    --------------------------------------------
      LOOP:  cpu time    1.2637: real time    1.2654

 eigenvalue-minimisations  :   992
 total energy-change (2. order) : 0.5304123E-02  (-0.3321918E-02)
 number of electron     109.0000678 magnetization 
 augmentation part       45.6429269 magnetization 

 Broyden mixing:
  rms(total) = 0.27204E+00    rms(broyden)= 0.27200E+00
  rms(prec ) = 0.27569E+00
  weight for this iteration     100.00

 eigenvalues of (default mixing * dielectric matrix)
  average eigenvalue GAMMA=   0.7153
  2.3192  2.3192  1.0726  0.6070  0.6070  0.4069  0.4069  0.3513  0.3513  0.1510
  0.2022  0.2522  0.2522

 Free energy of the ion-electron system (eV)
  ---------------------------------------------------
  alpha Z        PSCENC =       552.45266642
  Ewald energy   TEWEN  =     -5075.84684447
  -Hartree energ DENC   =      -809.87878705
  -exchange      EXHF   =         0.00000000
  -V(xc)+E(xc)   XCENC  =      -768.82178960
  PAW double counting   =      9233.32145199    -8436.82984677
  entropy T*S    EENTRO =        -0.12989488
  eigenvalues    EBANDS =       466.84594228
  atomic energy  EATOM  =      4687.48422623
  Solvation  Ediel_sol  =         0.00000000
  ---------------------------------------------------
  free energy    TOTEN  =      -151.40287583 eV

  energy without entropy =     -151.27298096  energy(sigma->0) =     -151.33792840


--------------------------------------------------------------------------------------------------------




--------------------------------------- Iteration      1(  19)  ---------------------------------------


    POTLOK:  cpu time    0.0305: real time    0.0307
    SETDIJ:  cpu time    0.0172: real time    0.0172
     EDDAV:  cpu time    1.1352: real time    1.1364
       DOS:  cpu time    0.0009: real time    0.0009
    CHARGE:  cpu time    0.0390: real time    0.0391
    MIXING:  cpu time    0.0025: real time    0.0025
    --------------------------------------------
      LOOP:  cpu time    1.2254: real time    1.2269

 eigenvalue-minimisations  :  1016
 total energy-change (2. order) :-0.2180160E-03  (-0.1067662E-02)
 number of electron     109.0000674 magnetization 
 augmentation part       45.6325321 magnetization 

 Broyden mixing:
  rms(total) = 0.24518E+00    rms(broyden)= 0.24517E+00
  rms(prec ) = 0.25539E+00
  weight for this iteration     100.00

 eigenvalues of (default mixing * dielectric matrix)
  average eigenvalue GAMMA=   0.7462
  2.4161  2.4161  1.2825  1.0006  0.6699  0.4071  0.4071  0.3673  0.3673  0.1510
  0.2023  0.2687  0.2454  0.2454

 Free energy of the ion-electron system (eV)
  ---------------------------------------------------
  alpha Z        PSCENC =       552.45266642
  Ewald energy   TEWEN  =     -5075.84684447
  -Hartree energ DENC   =      -810.07865341
  -exchange      EXHF   =         0.00000000
  -V(xc)+E(xc)   XCENC  =      -768.80032896
  PAW double counting   =      9235.38421707    -8438.80646093
  entropy T*S    EENTRO =        -0.13063938
  eigenvalues    EBANDS =       466.93872359
  atomic energy  EATOM  =      4687.48422623
  Solvation  Ediel_sol  =         0.00000000
  ---------------------------------------------------
  free energy    TOTEN  =      -151.40309385 eV

  energy without entropy =     -151.27245447  energy(sigma->0) =     -151.33777416


--------------------------------------------------------------------------------------------------------




--------------------------------------- Iteration      1(  20)  ---------------------------------------


    POTLOK:  cpu time    0.0297: real time    0.0297
    SETDIJ:  cpu time    0.0168: real time    0.0168
     EDDAV:  cpu time    1.1741: real time    1.1755
       DOS:  cpu time    0.0010: real time    0.0010
    CHARGE:  cpu time    0.0422: real time    0.0422
    MIXING:  cpu time    0.0033: real time    0.0033
    --------------------------------------------
      LOOP:  cpu time    1.2669: real time    1.2683

 eigenvalue-minimisations  :  1040
 total energy-change (2. order) : 0.6992532E-03  (-0.5051800E-03)
 number of electron     109.0000677 magnetization 
 augmentation part       45.6462605 magnetization 

 Broyden mixing:
  rms(total) = 0.19917E+00    rms(broyden)= 0.19916E+00
  rms(prec ) = 0.20235E+00
  weight for this iteration     100.00

 eigenvalues of (default mixing * dielectric matrix)
  average eigenvalue GAMMA=   0.7741
  2.4561  2.4561  1.5599  1.0826  0.8087  0.5972  0.4069  0.4069  0.3749  0.3504
  0.1510  0.2022  0.2596  0.2494  0.2494

 Free energy of the ion-electron system (eV)
  ---------------------------------------------------
  alpha Z        PSCENC =       552.45266642
  Ewald energy   TEWEN  =     -5075.84684447
  -Hartree energ DENC   =      -810.04021170
  -exchange      EXHF   =         0.00000000
  -V(xc)+E(xc)   XCENC  =      -768.80820172
  PAW double counting   =      9224.82618237    -8428.15861047
  entropy T*S    EENTRO =        -0.13024240
  eigenvalues    EBANDS =       466.81864114
  atomic energy  EATOM  =      4687.48422623
  Solvation  Ediel_sol  =         0.00000000
  ---------------------------------------------------
  free energy    TOTEN  =      -151.40239460 eV

  energy without entropy =     -151.27215220  energy(sigma->0) =     -151.33727340


--------------------------------------------------------------------------------------------------------




--------------------------------------- Iteration      1(  21)  ---------------------------------------


    POTLOK:  cpu time    0.0360: real time    0.0360
    SETDIJ:  cpu time    0.0195: real time    0.0195
     EDDAV:  cpu time    1.0693: real time    1.0707
       DOS:  cpu time    0.0009: real time    0.0009
    CHARGE:  cpu time    0.0394: real time    0.0395
    MIXING:  cpu time    0.0031: real time    0.0031
    --------------------------------------------
      LOOP:  cpu time    1.1682: real time    1.1697

 eigenvalue-minimisations  :   880
 total energy-change (2. order) : 0.2075396E-03  (-0.4244957E-04)
 number of electron     109.0000677 magnetization 
 augmentation part       45.6464064 magnetization 

 Broyden mixing:
  rms(total) = 0.16083E+00    rms(broyden)= 0.16083E+00
  rms(prec ) = 0.16274E+00
  weight for this iteration     100.00

 eigenvalues of (default mixing * dielectric matrix)
  average eigenvalue GAMMA=   0.8259
  2.4535  2.4535  1.9634  1.3539  0.9375  0.7603  0.6468  0.4070  0.4070  0.3611
  0.3611  0.1510  0.2022  0.2605  0.2476  0.2476

 Free energy of the ion-electron system (eV)
  ---------------------------------------------------
  alpha Z        PSCENC =       552.45266642
  Ewald energy   TEWEN  =     -5075.84684447
  -Hartree energ DENC   =      -810.07446017
  -exchange      EXHF   =         0.00000000
  -V(xc)+E(xc)   XCENC  =      -768.80561923
  PAW double counting   =      9218.23641924    -8421.52092160
  entropy T*S    EENTRO =        -0.13031955
  eigenvalues    EBANDS =       466.80266606
  atomic energy  EATOM  =      4687.48422623
  Solvation  Ediel_sol  =         0.00000000
  ---------------------------------------------------
  free energy    TOTEN  =      -151.40218706 eV

  energy without entropy =     -151.27186751  energy(sigma->0) =     -151.33702728


--------------------------------------------------------------------------------------------------------




--------------------------------------- Iteration      1(  22)  ---------------------------------------


    POTLOK:  cpu time    0.0322: real time    0.0323
    SETDIJ:  cpu time    0.0174: real time    0.0174
     EDDAV:  cpu time    1.2568: real time    1.2585
       DOS:  cpu time    0.0010: real time    0.0010
    CHARGE:  cpu time    0.0390: real time    0.0391
    MIXING:  cpu time    0.0033: real time    0.0033
    --------------------------------------------
      LOOP:  cpu time    1.3498: real time    1.3516

 eigenvalue-minimisations  :  1072
 total energy-change (2. order) : 0.8202097E-05  (-0.8169845E-04)
 number of electron     109.0000676 magnetization 
 augmentation part       45.6416353 magnetization 

 Broyden mixing:
  rms(total) = 0.11819E+00    rms(broyden)= 0.11818E+00
  rms(prec ) = 0.12270E+00
  weight for this iteration     100.00

 eigenvalues of (default mixing * dielectric matrix)
  average eigenvalue GAMMA=   0.8587
  2.5939  2.5939  2.0656  1.4921  1.0591  0.7679  0.7679  0.6095  0.4070  0.4070
  0.3625  0.3625  0.1510  0.2022  0.2609  0.2478  0.2478

 Free energy of the ion-electron system (eV)
  ---------------------------------------------------
  alpha Z        PSCENC =       552.45266642
  Ewald energy   TEWEN  =     -5075.84684447
  -Hartree energ DENC   =      -810.16094660
  -exchange      EXHF   =         0.00000000
  -V(xc)+E(xc)   XCENC  =      -768.79739890
  PAW double counting   =      9213.70760241    -8416.94258836
  entropy T*S    EENTRO =        -0.13053421
  eigenvalues    EBANDS =       466.83163862
  atomic energy  EATOM  =      4687.48422623
  Solvation  Ediel_sol  =         0.00000000
  ---------------------------------------------------
  free energy    TOTEN  =      -151.40217886 eV

  energy without entropy =     -151.27164464  energy(sigma->0) =     -151.33691175


--------------------------------------------------------------------------------------------------------




--------------------------------------- Iteration      1(  23)  ---------------------------------------


    POTLOK:  cpu time    0.0314: real time    0.0314
    SETDIJ:  cpu time    0.0175: real time    0.0175
     EDDAV:  cpu time    1.1671: real time    1.1688
       DOS:  cpu time    0.0008: real time    0.0008
    CHARGE:  cpu time    0.0391: real time    0.0391
    MIXING:  cpu time    0.0032: real time    0.0031
    --------------------------------------------
      LOOP:  cpu time    1.2591: real time    1.2608

 eigenvalue-minimisations  :   968
 total energy-change (2. order) : 0.1665725E-03  (-0.2893997E-04)
 number of electron     109.0000676 magnetization 
 augmentation part       45.6452804 magnetization 

 Broyden mixing:
  rms(total) = 0.78284E-01    rms(broyden)= 0.78283E-01
  rms(prec ) = 0.79887E-01
  weight for this iteration     100.00

 eigenvalues of (default mixing * dielectric matrix)
  average eigenvalue GAMMA=   0.9552
  3.2589  2.8355  2.2190  1.8953  0.9436  0.9436  0.9095  0.9095  0.6311  0.4070
  0.4070  0.3620  0.3620  0.1510  0.2022  0.2608  0.2478  0.2478

 Free energy of the ion-electron system (eV)
  ---------------------------------------------------
  alpha Z        PSCENC =       552.45266642
  Ewald energy   TEWEN  =     -5075.84684447
  -Hartree energ DENC   =      -810.14074196
  -exchange      EXHF   =         0.00000000
  -V(xc)+E(xc)   XCENC  =      -768.79961525
  PAW double counting   =      9206.67908678    -8409.88027052
  entropy T*S    EENTRO =        -0.13039595
  eigenvalues    EBANDS =       466.77987644
  atomic energy  EATOM  =      4687.48422623
  Solvation  Ediel_sol  =         0.00000000
  ---------------------------------------------------
  free energy    TOTEN  =      -151.40201228 eV

  energy without entropy =     -151.27161634  energy(sigma->0) =     -151.33681431


--------------------------------------------------------------------------------------------------------




--------------------------------------- Iteration      1(  24)  ---------------------------------------


    POTLOK:  cpu time    0.0322: real time    0.0324
    SETDIJ:  cpu time    0.0174: real time    0.0174
     EDDAV:  cpu time    1.0534: real time    1.0546
       DOS:  cpu time    0.0009: real time    0.0009
    CHARGE:  cpu time    0.0389: real time    0.0389
    MIXING:  cpu time    0.0034: real time    0.0034
    --------------------------------------------
      LOOP:  cpu time    1.1461: real time    1.1476

 eigenvalue-minimisations  :   856
 total energy-change (2. order) : 0.5236043E-04  (-0.1593042E-04)
 number of electron     109.0000676 magnetization 
 augmentation part       45.6452425 magnetization 

 Broyden mixing:
  rms(total) = 0.37246E-01    rms(broyden)= 0.37246E-01
  rms(prec ) = 0.39216E-01
  weight for this iteration     100.00

 eigenvalues of (default mixing * dielectric matrix)
  average eigenvalue GAMMA=   0.9845
  4.1006  2.7032  2.1157  2.1157  1.0295  1.0295  0.9559  0.6964  0.6964  0.6142
  0.4070  0.4070  0.3621  0.3621  0.1510  0.2022  0.2609  0.2478  0.2478

 Free energy of the ion-electron system (eV)
  ---------------------------------------------------
  alpha Z        PSCENC =       552.45266642
  Ewald energy   TEWEN  =     -5075.84684447
  -Hartree energ DENC   =      -810.16342154
  -exchange      EXHF   =         0.00000000
  -V(xc)+E(xc)   XCENC  =      -768.79912315
  PAW double counting   =      9199.36767070    -8402.53318943
  entropy T*S    EENTRO =        -0.13040598
  eigenvalues    EBANDS =       466.76646130
  atomic energy  EATOM  =      4687.48422623
  Solvation  Ediel_sol  =         0.00000000
  ---------------------------------------------------
  free energy    TOTEN  =      -151.40195992 eV

  energy without entropy =     -151.27155394  energy(sigma->0) =     -151.33675693


--------------------------------------------------------------------------------------------------------




--------------------------------------- Iteration      1(  25)  ---------------------------------------


    POTLOK:  cpu time    0.0319: real time    0.0320
    SETDIJ:  cpu time    0.0176: real time    0.0176
     EDDAV:  cpu time    0.9373: real time    0.9383
       DOS:  cpu time    0.0008: real time    0.0008
    CHARGE:  cpu time    0.0381: real time    0.0382
    MIXING:  cpu time    0.0036: real time    0.0037
    --------------------------------------------
      LOOP:  cpu time    1.0293: real time    1.0307

 eigenvalue-minimisations  :   768
 total energy-change (2. order) : 0.2505774E-04  (-0.8652179E-05)
 number of electron     109.0000677 magnetization 
 augmentation part       45.6465889 magnetization 

 Broyden mixing:
  rms(total) = 0.13016E-01    rms(broyden)= 0.13013E-01
  rms(prec ) = 0.13513E-01
  weight for this iteration     100.00

 eigenvalues of (default mixing * dielectric matrix)
  average eigenvalue GAMMA=   1.1514
  6.8535  2.6013  2.2267  2.2267  1.1626  1.1329  1.1329  0.8390  0.7880  0.7880
  0.6284  0.4070  0.4070  0.3620  0.3620  0.1510  0.2022  0.2609  0.2478  0.2478

 Free energy of the ion-electron system (eV)
  ---------------------------------------------------
  alpha Z        PSCENC =       552.45266642
  Ewald energy   TEWEN  =     -5075.84684447
  -Hartree energ DENC   =      -810.16252180
  -exchange      EXHF   =         0.00000000
  -V(xc)+E(xc)   XCENC  =      -768.79993429
  PAW double counting   =      9195.01411861    -8398.16297206
  entropy T*S    EENTRO =        -0.13034081
  eigenvalues    EBANDS =       466.74966730
  atomic energy  EATOM  =      4687.48422623
  Solvation  Ediel_sol  =         0.00000000
  ---------------------------------------------------
  free energy    TOTEN  =      -151.40193486 eV

  energy without entropy =     -151.27159405  energy(sigma->0) =     -151.33676446


--------------------------------------------------------------------------------------------------------




--------------------------------------- Iteration      1(  26)  ---------------------------------------


    POTLOK:  cpu time    0.0313: real time    0.0314
    SETDIJ:  cpu time    0.0173: real time    0.0173
     EDDAV:  cpu time    0.5803: real time    0.5810
       DOS:  cpu time    0.0010: real time    0.0010
    --------------------------------------------
      LOOP:  cpu time    0.6299: real time    0.6308

 eigenvalue-minimisations  :   416
 total energy-change (2. order) : 0.2239957E-05  (-0.1624231E-05)
 number of electron     109.0000677 magnetization 
 augmentation part       45.6465889 magnetization 

 Free energy of the ion-electron system (eV)
  ---------------------------------------------------
  alpha Z        PSCENC =       552.45266642
  Ewald energy   TEWEN  =     -5075.84684447
  -Hartree energ DENC   =      -810.16877731
  -exchange      EXHF   =         0.00000000
  -V(xc)+E(xc)   XCENC  =      -768.80002742
  PAW double counting   =      9192.53761138    -8395.67793786
  entropy T*S    EENTRO =        -0.13032448
  eigenvalues    EBANDS =       466.74747488
  atomic energy  EATOM  =      4687.48422623
  Solvation  Ediel_sol  =         0.00000000
  ---------------------------------------------------
  free energy    TOTEN  =      -151.40193262 eV

  energy without entropy =     -151.27160815  energy(sigma->0) =     -151.33677039


--------------------------------------------------------------------------------------------------------




 average (electrostatic) potential at core
  the test charge radii are     1.2064  1.0103
  (the norm of the test charge is              1.0000)
       1 -39.0858       2 -39.0858       3 -39.0858       4 -38.6091       5 -39.2441
       6 -39.2441       7 -39.2441       8 -39.2441       9 -39.2441      10 -39.2441
      11 -39.3954      12 -38.7750      13 -38.7750      14 -39.0223      15 -39.0223
      16 -39.2967      17 -39.2967      18 -42.6341      19 -42.6341      20 -42.6341
 
 
 
 E-fermi :   6.4284     XC(G=0): -12.3733     alpha+bet :-15.2488


 k-point     1 :       0.0000    0.0000    0.0000
  band No.  band energies     occupation 
      1      -0.1957      2.00000
      2       1.6524      2.00000
      3       1.6524      2.00000
      4       2.4208      2.00000
      5       2.4208      2.00000
      6       2.7147      2.00000
      7       2.7147      2.00000
      8       3.0466      2.00000
      9       3.1276      2.00000
     10       3.1276      2.00000
     11       3.3102      2.00000
     12       3.3605      2.00000
     13       3.3605      2.00000
     14       3.4167      2.00000
     15       3.4167      2.00000
     16       3.4472      2.00000
     17       3.6780      2.00000
     18       3.6985      2.00000
     19       3.6985      2.00000
     20       3.7344      2.00000
     21       3.9559      2.00000
     22       3.9559      2.00000
     23       4.0405      2.00000
     24       4.0512      2.00000
     25       4.0512      2.00000
     26       4.0609      2.00000
     27       4.1886      2.00000
     28       4.1886      2.00000
     29       4.4497      2.00000
     30       4.4497      2.00000
     31       4.4926      2.00000
     32       4.4926      2.00000
     33       4.7336      2.00000
     34       4.7935      2.00000
     35       4.8116      2.00000
     36       4.8116      2.00000
     37       4.8565      2.00000
     38       5.0200      2.00000
     39       5.2564      2.00000
     40       5.3206      2.00000
     41       5.4877      2.00000
     42       5.4877      2.00000
     43       5.7304      2.00000
     44       5.7656      2.00000
     45       5.7656      2.00000
     46       5.7822      2.00000
     47       5.8435      2.00000
     48       5.8435      2.00000
     49       5.9474      2.00000
     50       6.0339      2.00000
     51       6.0339      2.00000
     52       6.2240      1.99615
     53       6.2240      1.99615
     54       6.3830      1.47941
     55       6.4438      0.82741
     56       6.4438      0.82740
     57       6.8414      0.00000
     58       6.8414      0.00000
     59       6.8551      0.00000
     60       7.0621      0.00000
     61       7.0621      0.00000
     62       7.0906      0.00000
     63       7.3144      0.00000
     64       7.3738      0.00000
     65       7.3821      0.00000
     66       7.3885      0.00000
     67       7.4282      0.00000
     68       7.4469      0.00000

 k-point     2 :       0.5000   -0.0000   -0.0000
  band No.  band energies     occupation 
      1       0.8244      2.00000
      2       1.0658      2.00000
      3       1.9809      2.00000
      4       2.0703      2.00000
      5       2.2070      2.00000
      6       2.2194      2.00000
      7       2.6753      2.00000
      8       2.7895      2.00000
      9       2.8734      2.00000
     10       3.0063      2.00000
     11       3.1414      2.00000
     12       3.2233      2.00000
     13       3.3024      2.00000
     14       3.3389      2.00000
     15       3.3759      2.00000
     16       3.3765      2.00000
     17       3.4383      2.00000
     18       3.6251      2.00000
[...]
     31       3.5274      2.00000
     32       3.5596      2.00000
     33       3.6810      2.00000
     34       3.6990      2.00000
     35       3.7129      2.00000
     36       3.7848      2.00000
     37       3.8373      2.00000
     38       3.9493      2.00000
     39       4.0941      2.00000
     40       4.1504      2.00000
     41       4.1806      2.00000
     42       4.2879      2.00000
     43       4.3357      2.00000
     44       4.4224      2.00000
     45       4.4547      2.00000
     46       4.5781      2.00000
     47       4.6405      2.00000
     48       4.6440      2.00000
     49       4.7779      2.00000
     50       4.8436      2.00000
     51       4.8574      2.00000
     52       4.9668      1.99986
     53       5.0271      1.99689
     54       5.1528      1.76215
     55       5.2500      0.84614
     56       5.3428      0.13179
     57       5.4303      0.00605
     58       5.5195      0.00006
     59       5.5220      0.00005
     60       5.5417      0.00002
     61       5.5643      0.00000
     62       5.6675      0.00000
     63       5.7023      0.00000
     64       5.7594      0.00000
     65       5.7881      0.00000
     66       6.0171      0.00000
     67       6.0672      0.00000
     68       6.1048      0.00000

 k-point     3 :       0.5000    0.5000   -0.0000
  band No.  band energies     occupation 
      1       0.1439      2.00000
      2       0.2520      2.00000
      3       1.1014      2.00000
      4       1.2118      2.00000
      5       1.4095      2.00000
      6       1.6554      2.00000
      7       1.7437      2.00000
      8       1.8890      2.00000
      9       1.8951      2.00000
     10       1.9516      2.00000
     11       2.1175      2.00000
     12       2.1661      2.00000
     13       2.2891      2.00000
     14       2.3449      2.00000
     15       2.5219      2.00000
     16       2.6746      2.00000
     17       2.7085      2.00000
     18       2.8241      2.00000
     19       2.8417      2.00000
     20       2.9930      2.00000
     21       3.0628      2.00000
     22       3.0641      2.00000
     23       3.1241      2.00000
     24       3.1905      2.00000
     25       3.2395      2.00000
     26       3.2590      2.00000
     27       3.3982      2.00000
     28       3.4965      2.00000
     29       3.5398      2.00000
     30       3.5530      2.00000
     31       3.5786      2.00000
     32       3.6393      2.00000
     33       3.6485      2.00000
     34       3.6525      2.00000
     35       3.6857      2.00000
     36       3.7403      2.00000
     37       3.7866      2.00000
     38       3.9838      2.00000
     39       4.0783      2.00000
     40       4.0818      2.00000
     41       4.1559      2.00000
     42       4.2012      2.00000
     43       4.2731      2.00000
     44       4.3623      2.00000
     45       4.5342      2.00000
     46       4.5536      2.00000
     47       4.5912      2.00000
     48       4.6823      2.00000
     49       4.8027      2.00000
     50       4.8436      2.00000
     51       4.8697      2.00000
     52       4.9698      1.99984
     53       5.0666      1.98357
     54       5.1933      1.45662
     55       5.2354      1.00952
     56       5.2499      0.84636
     57       5.3092      0.30236
     58       5.3442      0.12667
     59       5.3763      0.04763
     60       5.4836      0.00047
     61       5.5028      0.00016
     62       5.6093      0.00000
     63       5.6584      0.00000
     64       5.7984      0.00000
     65       5.8008      0.00000
     66       5.9287      0.00000
     67       6.0096      0.00000
     68       6.0296      0.00000

 k-point     4 :       0.5000    0.5000    0.5000
  band No.  band energies     occupation 
      1      -0.3349      2.00000
      2       0.4426      2.00000
      3       1.4508      2.00000
      4       1.4508      2.00000
      5       1.8506      2.00000
      6       1.8506      2.00000
      7       1.9503      2.00000
      8       1.9929      2.00000
      9       1.9929      2.00000
     10       2.1262      2.00000
     11       2.1737      2.00000
     12       2.1737      2.00000
     13       2.2360      2.00000
     14       2.2360      2.00000
     15       2.4321      2.00000
     16       2.5439      2.00000
     17       2.5439      2.00000
     18       2.7220      2.00000
     19       2.7220      2.00000
     20       2.8706      2.00000
     21       2.9485      2.00000
     22       3.0048      2.00000
     23       3.0048      2.00000
     24       3.0239      2.00000
     25       3.0296      2.00000
     26       3.0296      2.00000
     27       3.2089      2.00000
     28       3.2089      2.00000
     29       3.3363      2.00000
     30       3.3662      2.00000
     31       3.4889      2.00000
     32       3.6106      2.00000
     33       3.6150      2.00000
     34       3.6150      2.00000
     35       3.6313      2.00000
     36       3.6313      2.00000
     37       3.8427      2.00000
     38       3.8427      2.00000
     39       4.0168      2.00000
     40       4.0168      2.00000
     41       4.1307      2.00000
     42       4.1364      2.00000
     43       4.3201      2.00000
     44       4.6710      2.00000
     45       4.7556      2.00000
     46       4.7556      2.00000
     47       4.8413      2.00000
     48       4.8413      2.00000
     49       4.8876      2.00000
     50       4.8876      2.00000
     51       4.9102      2.00000
     52       5.1079      1.93051
     53       5.1079      1.93051
     54       5.1939      1.45022
     55       5.3667      0.06513
     56       5.3667      0.06513
     57       5.4209      0.00900
     58       5.4209      0.00900
     59       5.4706      0.00092
     60       5.5473      0.00001
     61       5.5473      0.00001
     62       5.6495      0.00000
     63       5.8844      0.00000
     64       5.8844      0.00000
     65       5.9302      0.00000
     66       6.1341      0.00000
     67       6.1341      0.00000
     68       6.1707      0.00000


--------------------------------------------------------------------------------------------------------


 soft charge-density along one line, spin component           1
         0         1         2         3         4         5         6         7         8         9
 total charge-density along one line
 
 pseudopotential strength for first ion, spin component:           1
 -2.228  -0.006  -0.021  -0.007   0.001  -2.714  -0.005  -0.020
 -0.006  -2.114   0.004   0.012  -0.001  -0.005  -2.606   0.004
 -0.021   0.004  -2.102   0.006  -0.008  -0.020   0.004  -2.595
 -0.007   0.012   0.006  -2.105  -0.003  -0.007   0.012   0.006
  0.001  -0.001  -0.008  -0.003  -2.230   0.001  -0.001  -0.007
 -2.714  -0.005  -0.020  -0.007   0.001  -3.151  -0.005  -0.019
 -0.005  -2.606   0.004   0.012  -0.001  -0.005  -3.048   0.005
 -0.020   0.004  -2.595   0.006  -0.007  -0.019   0.005  -3.039
 -0.007   0.012   0.006  -2.597  -0.003  -0.006   0.011   0.006
  0.001  -0.001  -0.007  -0.003  -2.716   0.001  -0.001  -0.007
 -0.006   0.004  -0.035   0.005  -0.002  -0.005   0.003  -0.033
  0.012  -0.011   0.083  -0.016   0.004   0.011  -0.011   0.079
 -0.000  -0.000   0.000  -0.000   0.000  -0.000  -0.000   0.000
 -0.000  -0.000  -0.000  -0.000  -0.000  -0.000  -0.000  -0.000
 -0.000  -0.000   0.000  -0.000  -0.000  -0.000  -0.000   0.000
  0.000   0.000  -0.000   0.000  -0.000   0.000   0.000  -0.000
  0.000   0.000   0.000   0.000   0.000   0.000   0.000   0.000
  0.000   0.000  -0.000   0.000   0.000   0.000   0.000  -0.000
 total augmentation occupancy for first ion, spin component:           1
  0.316   0.006   0.016  -0.017  -0.002  -0.126   0.053   0.011  -0.001  -0.007  -0.120  -0.002   0.000   0.000   0.000   0.000
  0.006   0.364   0.012   0.055  -0.035   0.064  -0.518  -0.076  -0.089  -0.061   0.005  -0.001   0.000   0.000   0.000   0.000
  0.016   0.012   0.389   0.017   0.006   0.013  -0.079  -0.405  -0.113   0.005  -0.175  -0.004   0.000   0.000   0.000   0.000
 -0.017   0.055   0.017   0.403   0.020   0.034  -0.089  -0.108  -0.583   0.071   0.007  -0.001   0.000   0.000   0.000   0.000
 -0.002  -0.035   0.006   0.020   0.320  -0.007  -0.092   0.004   0.078  -0.111  -0.044  -0.001   0.000   0.000   0.000   0.000
 -0.126   0.064   0.013   0.034  -0.007   0.538  -0.185  -0.094  -0.198   0.032   0.135   0.003   0.000   0.000   0.000   0.000
  0.053  -0.518  -0.079  -0.089  -0.092  -0.185   1.537   0.077   0.116   0.029  -0.089   0.002   0.000   0.000   0.000   0.000
  0.011  -0.076  -0.405  -0.108   0.004  -0.094   0.077   1.403   0.110  -0.034   0.622   0.000   0.000   0.000   0.000   0.000
 -0.001  -0.089  -0.113  -0.583   0.078  -0.198   0.116   0.110   1.621  -0.140  -0.128   0.003   0.000   0.000   0.000   0.000
 -0.007  -0.061   0.005   0.071  -0.111   0.032   0.029  -0.034  -0.140   0.462   0.049   0.001   0.000   0.000   0.000   0.000
 -0.120   0.005  -0.175   0.007  -0.044   0.135  -0.089   0.622  -0.128   0.049   1.595   0.022   0.000   0.000   0.000   0.000
 -0.002  -0.001  -0.004  -0.001  -0.001   0.003   0.002   0.000   0.003   0.001   0.022   0.001   0.000   0.000   0.000   0.000
  0.000   0.000   0.000   0.000   0.000   0.000   0.000   0.000   0.000   0.000   0.000   0.000   0.198   0.007   0.014   0.006
  0.000   0.000   0.000   0.000   0.000   0.000   0.000   0.000   0.000   0.000   0.000   0.000   0.007   0.212   0.010   0.001
  0.000   0.000   0.000   0.000   0.000   0.000   0.000   0.000   0.000   0.000   0.000   0.000   0.014   0.010   0.208   0.001
  0.000   0.000   0.000   0.000   0.000   0.000   0.000   0.000   0.000   0.000   0.000   0.000   0.006   0.001   0.001   0.000
  0.000   0.000   0.000   0.000   0.000   0.000   0.000   0.000   0.000   0.000   0.000   0.000   0.001   0.003   0.001   0.000
  0.000   0.000   0.000   0.000   0.000   0.000   0.000   0.000   0.000   0.000   0.000   0.000   0.001   0.001   0.006   0.000


------------------------ aborting loop because EDIFF is reached ----------------------------------------


    CHARGE:  cpu time    0.0199: real time    0.0199
    FORLOC:  cpu time    0.0037: real time    0.0037
    FORNL :  cpu time    0.3135: real time    0.3137
    STRESS:  cpu time    0.3326: real time    0.3328
    FORCOR:  cpu time    0.0194: real time    0.0194
    FORHAR:  cpu time    0.0066: real time    0.0066
    MIXING:  cpu time    0.0009: real time    0.0009
    OFIELD:  cpu time    0.0000: real time    0.0000

  FORCE on cell =-STRESS in cart. coord.  units (eV):
  Direction    XX          YY          ZZ          XY          YZ          ZX
  --------------------------------------------------------------------------------------
  Alpha Z   478.78141   478.78141   478.78141
  Ewald   -1714.12703 -1539.23177 -1470.82676  -240.56482  -129.88811  -185.41907
  Hartree   216.21102   356.70350   411.65291  -193.24448  -104.33839  -148.94618
  E(xc)    -500.32750  -498.74941  -498.13219    -2.17064    -1.17199    -1.67305
  Local     349.87890    27.55431   -98.51329   443.35078   239.37817   341.71949
  n-local  -144.62972  -133.09797  -134.88999   -10.37622    -6.51728    -7.12723
  augment   451.32899   451.33999   451.34432    -0.01511    -0.00814    -0.01165
  Kinetic   861.29320   859.14181   859.70152     3.76481    -0.84923     3.45538
  Fock        0.00000     0.00000     0.00000     0.00000     0.00000     0.00000
  -------------------------------------------------------------------------------------
  Total      -0.01296    -0.00964    -0.00834    -0.00456    -0.00246    -0.00352
  in kB      -0.06945    -0.05167    -0.04472    -0.02445    -0.01320    -0.01884
  external pressure =       -0.06 kB  Pullay stress =        0.00 kB


 VOLUME and BASIS-vectors are now :
 -----------------------------------------------------------------------------
  energy-cutoff  :      267.88
  volume of cell :      298.94
      direct lattice vectors                 reciprocal lattice vectors
     7.313515053  0.428490766  0.330265977     0.142254224 -0.059115006 -0.045563809
     2.901283277  6.727084290  0.330265986    -0.006958715  0.153890949 -0.045563824
     2.901283344  2.032380352  6.421228684    -0.006958715 -0.004874654  0.160420444

  length of vectors
     7.333497282  7.333497346  7.333497989     0.160645289  0.160645293  0.160645276


 FORCES acting on ions
    electron-ion (+dipol)            ewald-force                    non-local-force                 convergence-correction
 -----------------------------------------------------------------------------------------------
   -.484E-12 -.180E-12 -.665E-12   0.806E-12 0.225E-11 0.147E-11   0.120E-24 -.171E-24 -.103E-23   -.723E-13 0.105E-12 -.120E-12
   0.102E-12 0.722E-13 0.123E-12   0.210E-11 0.179E-11 -.377E-12   -.368E-24 -.405E-24 0.245E-24   -.693E-13 -.173E-13 0.131E-13
   -.340E-12 -.880E-13 -.178E-12   0.230E-11 -.413E-11 0.274E-11   0.126E-24 0.603E-24 0.117E-24   -.449E-13 -.144E-12 0.251E-13
   0.253E-12 0.156E-12 -.678E-13   0.370E-12 -.335E-12 0.340E-12   -.143E-23 0.938E-24 -.713E-24   0.424E-13 -.180E-12 -.287E-12
   0.410E+02 0.563E+02 0.149E+02   -.406E+02 -.560E+02 -.146E+02   -.416E+00 -.291E+00 -.225E+00   -.707E-03 -.284E-02 0.236E-03
   0.410E+02 0.287E+02 0.507E+02   -.406E+02 -.284E+02 -.504E+02   -.416E+00 -.292E+00 -.224E+00   -.707E-03 -.495E-03 -.281E-02
   0.669E+02 0.193E+02 0.149E+02   -.665E+02 -.190E+02 -.146E+02   -.416E+00 -.292E+00 -.225E+00   -.291E-02 0.306E-03 0.236E-03
   -.410E+02 -.563E+02 -.149E+02   0.406E+02 0.560E+02 0.146E+02   0.416E+00 0.291E+00 0.225E+00   0.707E-03 0.284E-02 -.236E-03
   -.410E+02 -.287E+02 -.507E+02   0.406E+02 0.284E+02 0.504E+02   0.416E+00 0.292E+00 0.224E+00   0.707E-03 0.495E-03 0.281E-02
   -.669E+02 -.193E+02 -.149E+02   0.665E+02 0.190E+02 0.146E+02   0.416E+00 0.292E+00 0.225E+00   0.291E-02 -.306E-03 -.236E-03
   -.361E-12 0.562E-12 0.167E-12   -.356E-11 -.131E-11 -.225E-11   -.378E-25 -.799E-25 0.981E-25   0.858E-13 0.229E-12 0.954E-13
   -.138E+02 -.967E+01 -.745E+01   0.121E+02 0.846E+01 0.652E+01   0.174E+01 0.122E+01 0.938E+00   -.707E-02 -.495E-02 -.382E-02
   0.138E+02 0.967E+01 0.745E+01   -.121E+02 -.846E+01 -.652E+01   -.174E+01 -.122E+01 -.938E+00   0.707E-02 0.495E-02 0.382E-02
   0.568E+02 0.398E+02 0.307E+02   -.525E+02 -.368E+02 -.283E+02   -.428E+01 -.300E+01 -.231E+01   -.180E-01 -.126E-01 -.969E-02
   -.568E+02 -.398E+02 -.307E+02   0.525E+02 0.368E+02 0.283E+02   0.428E+01 0.300E+01 0.231E+01   0.180E-01 0.126E-01 0.969E-02
   0.734E+02 0.514E+02 0.396E+02   -.749E+02 -.525E+02 -.404E+02   0.148E+01 0.104E+01 0.799E+00   -.112E-02 -.782E-03 -.603E-03
   -.734E+02 -.514E+02 -.396E+02   0.749E+02 0.525E+02 0.404E+02   -.148E+01 -.104E+01 -.799E+00   0.112E-02 0.782E-03 0.603E-03
   0.209E-12 -.243E-13 0.494E-12   -.994E-12 -.137E-11 0.114E-12   0.885E-24 -.281E-25 -.639E-25   -.413E-13 -.288E-12 0.877E-12
   -.839E-12 -.890E-12 -.218E-11   -.632E-12 -.149E-11 -.525E-12   -.135E-23 0.109E-23 0.131E-23   0.220E-12 -.278E-12 -.401E-13
   0.613E-13 0.476E-12 -.145E-12   -.669E-12 0.344E-12 -.485E-12   -.375E-24 0.229E-24 0.325E-24   -.148E-12 0.668E-12 -.570E-12
 -----------------------------------------------------------------------------------------------
   -.271E-11 0.318E-11 -.345E-11   -.640E-13 -.143E-13 0.498E-13   -.838E-24 0.444E-15 -.444E-15   0.661E-12 -.305E-13 0.294E-12
 
 
 POSITION                                       TOTAL-FORCE (eV/Angst)
 -----------------------------------------------------------------------------------
      5.10740      3.57779      0.33027        -0.000000     -0.000000      0.000000
      2.90128      4.37973      3.37575         0.000000     -0.000000      0.000000
      5.10740      1.23044      3.37575        -0.000000     -0.000000      0.000000
     -0.00000      0.00000     -0.00000         0.000000     -0.000000      0.000000
      5.14617      5.82623      2.19366        -0.002658      0.001614     -0.002350
      5.14617      3.60495      5.07557        -0.002658     -0.001862      0.002159
      7.23380      2.84607      2.19366         0.000609     -0.003049     -0.002350
      7.96991      3.36173      4.88810         0.002658     -0.001614      0.002350
      7.96991      5.58301      2.00619         0.002658      0.001862     -0.002159
      5.88228      6.34188      4.88810        -0.000609      0.003049      0.002350
      6.55804      4.59398      3.54088        -0.000000     -0.000000      0.000000
      8.41580      5.89536      4.54394         0.002143      0.001501      0.001157
      4.70028      3.29260      2.53782        -0.002143     -0.001501     -0.001157
      1.39950      0.98036      0.75563        -0.007054     -0.004941     -0.003808
     11.71658      8.20759      6.32613         0.007054      0.004941      0.003808
     10.14442      7.10628      5.47727        -0.006181     -0.004330     -0.003337
      2.97166      2.08168      1.60449         0.006181      0.004330      0.003337
      1.45064      1.01619      3.21061         0.000000     -0.000000      0.000000
      3.65676      0.21425      0.16513        -0.000000     -0.000000      0.000000
      1.45064      3.36354      0.16513        -0.000000     -0.000000      0.000000
 -----------------------------------------------------------------------------------
    total drift:                               -0.000000      0.000000     -0.000000


--------------------------------------------------------------------------------------------------------



  FREE ENERGIE OF THE ION-ELECTRON SYSTEM (eV)
  ---------------------------------------------------
  free  energy   TOTEN  =      -157.03315552 eV

  energy  without entropy=     -156.88547405  energy(sigma->0) =     -156.95931479
 
 d Force = 0.1694628E-04[-0.641E-05, 0.403E-04]  d Energy =-0.7395825E-05 0.243E-04
 d Force =-0.3614742E+00[-0.362E+00,-0.361E+00]  d Ewald  =-0.6008918E+00 0.239E+00


--------------------------------------------------------------------------------------------------------


    POTLOK:  cpu time    0.0242: real time    0.0242


--------------------------------------------------------------------------------------------------------


 Conjugate gradient step on ions:
 trial-energy change:    0.000007  1 .order   -0.000021   -0.000051    0.000009
  (g-gl).g = 0.167E-03      g.g   = 0.120E-03  gl.gl    = 0.121E-03
 g(Force)  = 0.396E-04   g(Stress)= 0.804E-04 ortho     =-0.383E-06
 gamma     =   1.37846
 trial     =   0.42639
 opt step  =   0.36256  (harmonic =   0.36256) maximal distance =0.00055674
 next E    =  -157.033185   (d E  =  -0.00002)


--------------------------------------------------------------------------------------------------------


  
 reached required accuracy - stopping structural energy minimisation
     LOOP+:  cpu time    3.9797: real time    3.9825
    4ORBIT:  cpu time    0.0000: real time    0.0000

 total amount of memory used by VASP MPI-rank0    42418. kBytes
=======================================================================

   base      :      30000. kBytes
   nonl-proj :       3844. kBytes
   fftplans  :       1619. kBytes
   grid      :       3411. kBytes
   one-center:        311. kBytes
   wavefun   :       3233. kBytes
 
  
  
 General timing and accounting informations for this job:
 ========================================================
  
                  Total CPU time used (sec):      961.060
                            User time (sec):      953.708
                          System time (sec):        7.352
                         Elapsed time (sec):      962.910
  
                   Maximum memory used (kb):      197672.
                   Average memory used (kb):           0.
  
                          Minor page faults:       943686
                          Major page faults:            0
                 Voluntary context switches:          482
