 running on    4 total cores
 distrk:  each k-point on    4 cores,    1 groups
 distr:  one band on    1 cores,    4 groups
 using from now: INCAR     
 vasp.5.4.4.18Apr17-6-g9f103f2a35 (build Jul 11 2019 11:52:51) complex          
  
 POSCAR found type information on POSCAR  V  Fe
 POSCAR found :  2 types and      20 ions
 scaLAPACK will be used

 ----------------------------------------------------------------------------- 
|                                                                             |
|  ADVICE TO THIS USER RUNNING 'VASP/VAMP'   (HEAR YOUR MASTER'S VOICE ...):  |
|                                                                             |
|      You have a (more or less) 'large supercell' and for larger cells       |
|      it might be more efficient to use real space projection opertators     |
|      So try LREAL= Auto  in the INCAR   file.                               |
|      Mind:          For very  accurate calculation you might also keep the  |
|      reciprocal projection scheme          (i.e. LREAL=.FALSE.)             |
|                                                                             |
 ----------------------------------------------------------------------------- 

 LDA part: xc-table for Pade appr. of Perdew
 POSCAR, INCAR and KPOINTS ok, starting setup
 FFT: planning ...
 WAVECAR not read
 entering main loop
       N       E                     dE             d eps       ncg     rms          rms(c)
DAV:   1     0.670849271216E+03    0.67085E+03   -0.23694E+04   544   0.113E+03
DAV:   2    -0.475545954072E+02   -0.71840E+03   -0.69176E+03   544   0.336E+02
DAV:   3    -0.169869486117E+03   -0.12231E+03   -0.11548E+03   908   0.161E+02
DAV:   4    -0.182678458057E+03   -0.12809E+02   -0.12209E+02   872   0.646E+01
DAV:   5    -0.183551296437E+03   -0.87284E+00   -0.83901E+00   896   0.125E+01    0.703E+01
DAV:   6    -0.331483403438E+03   -0.14793E+03   -0.24184E+03  1056   0.378E+02    0.289E+02
DAV:   7    -0.251219158902E+03    0.80264E+02   -0.75999E+02   912   0.153E+02    0.827E+01
DAV:   8    -0.154922040212E+03    0.96297E+02   -0.35645E+02   904   0.119E+02    0.330E+01
DAV:   9    -0.153308096261E+03    0.16139E+01   -0.12845E+02   960   0.739E+01    0.251E+01
DAV:  10    -0.155428091642E+03   -0.21200E+01   -0.90686E+01   912   0.682E+01    0.180E+01
DAV:  11    -0.154905119402E+03    0.52297E+00   -0.39839E+01   984   0.480E+01    0.269E+01
DAV:  12    -0.151874819594E+03    0.30303E+01   -0.14530E+01  1000   0.270E+01    0.101E+01
DAV:  13    -0.151672481663E+03    0.20234E+00   -0.52889E+00   928   0.151E+01    0.991E+00
DAV:  14    -0.151443928545E+03    0.22855E+00   -0.99729E-01   920   0.899E+00    0.634E+00
DAV:  15    -0.151440919342E+03    0.30092E-02   -0.71608E-01   984   0.608E+00    0.497E+00
DAV:  16    -0.151424865106E+03    0.16054E-01   -0.36654E-01   928   0.451E+00    0.418E+00
DAV:  17    -0.151408179958E+03    0.16685E-01   -0.23192E-01  1048   0.355E+00    0.348E+00
DAV:  18    -0.151402875834E+03    0.53041E-02   -0.33219E-02   992   0.142E+00    0.272E+00
DAV:  19    -0.151403093850E+03   -0.21802E-03   -0.10677E-02  1016   0.695E-01    0.245E+00
DAV:  20    -0.151402394597E+03    0.69925E-03   -0.50518E-03  1040   0.535E-01    0.199E+00
DAV:  21    -0.151402187058E+03    0.20754E-03   -0.42450E-04   880   0.155E-01    0.161E+00
DAV:  22    -0.151402178856E+03    0.82021E-05   -0.81698E-04  1072   0.189E-01    0.118E+00
DAV:  23    -0.151402012283E+03    0.16657E-03   -0.28940E-04   968   0.131E-01    0.783E-01
DAV:  24    -0.151401959923E+03    0.52360E-04   -0.15930E-04   856   0.829E-02    0.372E-01
DAV:  25    -0.151401934865E+03    0.25058E-04   -0.86522E-05   768   0.648E-02    0.130E-01
DAV:  26    -0.151401932625E+03    0.22400E-05   -0.16242E-05   416   0.276E-02
   1 F= -.15140193E+03 E0= -.15133677E+03  d E =-.151402E+03
 curvature:   0.00 expect dE= 0.000E+00 dE for cont linesearch  0.000E+00
 trial: gam= 0.00000 g(F)=  0.534E+00 g(S)=  0.134E+02 ort = 0.000E+00 (trialstep = 0.100E+01)
 search vector abs. value=  0.139E+02
 bond charge predicted
       N       E                     dE             d eps       ncg     rms          rms(c)
DAV:   1    -0.204276273249E+03   -0.52874E+02   -0.14055E+03   576   0.301E+02    0.902E+01
DAV:   2    -0.421266427080E+03   -0.21699E+03   -0.33198E+03   804   0.209E+02    0.102E+02
DAV:   3    -0.142881886696E+03    0.27838E+03   -0.53122E+02   896   0.140E+02    0.599E+01
DAV:   4    -0.179477936146E+03   -0.36596E+02   -0.10116E+03  1080   0.149E+02    0.539E+01
DAV:   5    -0.170698268458E+03    0.87797E+01   -0.26746E+02   948   0.786E+01    0.465E+01
DAV:   6    -0.162329250724E+03    0.83690E+01   -0.43196E+01   976   0.355E+01    0.367E+01
DAV:   7    -0.158790635874E+03    0.35386E+01   -0.41239E+00  1032   0.125E+01    0.325E+01
DAV:   8    -0.153755525632E+03    0.50351E+01   -0.21238E+01  1088   0.307E+01    0.186E+01
DAV:   9    -0.152821204519E+03    0.93432E+00   -0.11934E+01   912   0.187E+01    0.151E+01
DAV:  10    -0.153007883801E+03   -0.18668E+00   -0.70025E+00  1016   0.162E+01    0.143E+01
DAV:  11    -0.154358979110E+03   -0.13511E+01   -0.12664E+01  1040   0.204E+01    0.201E+01
DAV:  12    -0.152972364053E+03    0.13866E+01   -0.93019E+00   916   0.176E+01    0.100E+01
DAV:  13    -0.152905053381E+03    0.67311E-01   -0.46822E+00   944   0.129E+01    0.158E+01
DAV:  14    -0.152379597901E+03    0.52546E+00   -0.77410E-01   928   0.507E+00    0.903E+00
DAV:  15    -0.152206039856E+03    0.17356E+00   -0.25806E-01  1032   0.214E+00    0.550E+00
DAV:  16    -0.152264720561E+03   -0.58681E-01   -0.59538E-02   984   0.158E+00    0.685E+00
DAV:  17    -0.152222659466E+03    0.42061E-01   -0.45049E-02   968   0.122E+00    0.591E+00
DAV:  18    -0.152119330725E+03    0.10333E+00   -0.60240E-01  1048   0.364E+00    0.146E+00
DAV:  19    -0.152117941776E+03    0.13889E-02   -0.42527E-02   784   0.123E+00    0.578E-01
DAV:  20    -0.152116753749E+03    0.11880E-02   -0.58583E-03  1040   0.343E-01    0.185E-01
DAV:  21    -0.152117600740E+03   -0.84699E-03   -0.50510E-03  1056   0.303E-01    0.494E-01
DAV:  22    -0.152117104895E+03    0.49585E-03   -0.96127E-04  1032   0.186E-01    0.238E-01
DAV:  23    -0.152116898745E+03    0.20615E-03   -0.80932E-04  1072   0.130E-01    0.316E-02
DAV:  24    -0.152116904106E+03   -0.53604E-05   -0.49751E-05   640   0.411E-02
   2 F= -.15211690E+03 E0= -.15203980E+03  d E =-.714971E+00
 trial-energy change:   -0.714971  1 .order   -1.226001  -13.932353   11.480352
 step:   0.5181(harm=  0.5482)  dis= 0.02454  next Energy=  -154.940166 (dE=-0.354E+01)
 bond charge predicted
       N       E                     dE             d eps       ncg     rms          rms(c)
DAV:   1    -0.173285349889E+03   -0.21168E+02   -0.32185E+02   544   0.132E+02    0.547E+01
DAV:   2    -0.380307765126E+03   -0.20702E+03   -0.11484E+03   992   0.286E+02    0.222E+02
DAV:   3    -0.259070551265E+03    0.12124E+03   -0.49448E+02   884   0.108E+02    0.770E+01
DAV:   4    -0.160653650450E+03    0.98417E+02   -0.22118E+02   896   0.775E+01    0.329E+01
DAV:   5    -0.155239699565E+03    0.54140E+01   -0.53319E+01   976   0.506E+01    0.141E+01
DAV:   6    -0.159709085031E+03   -0.44694E+01   -0.58023E+01  1032   0.401E+01    0.354E+01
DAV:   7    -0.155168465879E+03    0.45406E+01   -0.20650E+01   984   0.271E+01    0.118E+01
DAV:   8    -0.155687011624E+03   -0.51855E+00   -0.12682E+01  1080   0.195E+01    0.148E+01
DAV:   9    -0.155629061385E+03    0.57950E-01   -0.11203E+00   900   0.686E+00    0.140E+01
DAV:  10    -0.155111214118E+03    0.51785E+00   -0.40485E-01  1080   0.481E+00    0.101E+01
DAV:  11    -0.154741699635E+03    0.36951E+00   -0.12169E+00  1088   0.668E+00    0.351E+00
DAV:  12    -0.154742510836E+03   -0.81120E-03   -0.26901E-01   920   0.299E+00    0.246E+00
DAV:  13    -0.154747829801E+03   -0.53190E-02   -0.38400E-02   968   0.101E+00    0.223E+00
DAV:  14    -0.154749002463E+03   -0.11727E-02   -0.21852E-02   936   0.884E-01    0.203E+00
DAV:  15    -0.154786905309E+03   -0.37903E-01   -0.20798E-01  1008   0.596E-01    0.156E+00
DAV:  16    -0.154792868623E+03   -0.59633E-02   -0.85141E-02  1040   0.270E-01    0.137E+00
DAV:  17    -0.154796114844E+03   -0.32462E-02   -0.11887E-02  1008   0.338E-01    0.156E+00
DAV:  18    -0.154794668225E+03    0.14466E-02   -0.15164E-03   976   0.137E-01    0.142E+00
DAV:  19    -0.154793045887E+03    0.16223E-02   -0.32621E-03   968   0.303E-01    0.110E+00
DAV:  20    -0.154791757662E+03    0.12882E-02   -0.15109E-03   992   0.201E-01    0.824E-01
DAV:  21    -0.154790510197E+03    0.12475E-02   -0.13026E-03  1072   0.196E-01    0.547E-01
DAV:  22    -0.154789674669E+03    0.83553E-03   -0.19104E-03  1072   0.236E-01    0.221E-01
DAV:  23    -0.154789636907E+03    0.37762E-04   -0.37430E-04   904   0.107E-01    0.115E-01
DAV:  24    -0.154789637980E+03   -0.10728E-05   -0.29371E-05   552   0.307E-02
   3 F= -.15478964E+03 E0= -.15472599E+03  d E =-.338771E+01
 curvature:  -0.27 expect dE=-0.373E-01 dE for cont linesearch -0.348E-02
 ZBRENT: interpolating
 opt :   0.5029  next Energy=  -154.792847 (dE=-0.339E+01)
 bond charge predicted
       N       E                     dE             d eps       ncg     rms          rms(c)
DAV:   1    -0.154811322272E+03   -0.21685E-01   -0.32792E-01   552   0.454E+00    0.210E+00
DAV:   2    -0.156309644077E+03   -0.14983E+01   -0.65890E+00  1088   0.165E+01    0.171E+01
DAV:   3    -0.154765386583E+03    0.15443E+01   -0.49011E+00  1088   0.172E+01    0.951E-01
DAV:   4    -0.154795012598E+03   -0.29626E-01   -0.40900E-01   892   0.373E+00    0.679E-01
DAV:   5    -0.154793163413E+03    0.18492E-02   -0.44676E-02   920   0.143E+00    0.655E-01
DAV:   6    -0.154792261717E+03    0.90170E-03   -0.83005E-03   920   0.610E-01    0.458E-01
DAV:   7    -0.154791438859E+03    0.82286E-03   -0.20031E-03  1072   0.318E-01    0.194E-01
DAV:   8    -0.154791416713E+03    0.22147E-04   -0.10782E-03   920   0.196E-01    0.163E-01
DAV:   9    -0.154791359015E+03    0.57697E-04   -0.86695E-04   904   0.172E-01    0.112E-01
DAV:  10    -0.154791328072E+03    0.30943E-04   -0.43350E-04   900   0.135E-01    0.737E-02
DAV:  11    -0.154791314112E+03    0.13960E-04   -0.18117E-04   912   0.849E-02    0.334E-02
DAV:  12    -0.154791308345E+03    0.57666E-05   -0.67596E-05   816   0.536E-02
   4 F= -.15479131E+03 E0= -.15472816E+03  d E =-.338938E+01
 curvature:  -0.25 expect dE=-0.294E-01 dE for cont linesearch -0.739E-04
 ZBRENT: interpolating
 opt :   0.5049  next Energy=  -154.791373 (dE=-0.339E+01)
 bond charge predicted
       N       E                     dE             d eps       ncg     rms          rms(c)
DAV:   1    -0.154791741557E+03   -0.42745E-03   -0.57631E-03   560   0.599E-01    0.261E-01
DAV:   2    -0.154819615000E+03   -0.27873E-01   -0.10242E-01  1088   0.208E+00    0.275E+00
DAV:   3    -0.154791505262E+03    0.28110E-01   -0.10053E-01  1072   0.196E+00    0.208E-01
DAV:   4    -0.154791515912E+03   -0.10650E-04   -0.57017E-03   888   0.445E-01    0.816E-02
DAV:   5    -0.154791413385E+03    0.10253E-03   -0.85190E-04   920   0.211E-01    0.488E-02
DAV:   6    -0.154791407544E+03    0.58416E-05   -0.12255E-04   840   0.840E-02    0.300E-02
DAV:   7    -0.154791402694E+03    0.48494E-05   -0.13420E-05   456   0.369E-02
   5 F= -.15479140E+03 E0= -.15472818E+03  d E =-.338947E+01
 curvature:  -0.22 expect dE=-0.255E-01 dE for cont linesearch -0.428E-04
 ZBRENT: bisectioning
 opt :   0.5115  next Energy=  -154.791620 (dE=-0.339E+01)
 bond charge predicted
       N       E                     dE             d eps       ncg     rms          rms(c)
DAV:   1    -0.154794749836E+03   -0.33423E-02   -0.62368E-02   552   0.197E+00    0.869E-01
DAV:   2    -0.155123960242E+03   -0.32921E+00   -0.12728E+00  1088   0.692E+00    0.987E+00
DAV:   3    -0.154793956752E+03    0.33000E+00   -0.13257E+00  1072   0.629E+00    0.829E-01
DAV:   4    -0.154792377149E+03    0.15796E-02   -0.68263E-02   872   0.153E+00    0.274E-01
DAV:   5    -0.154791149170E+03    0.12280E-02   -0.10655E-02   936   0.740E-01    0.175E-01
DAV:   6    -0.154791087601E+03    0.61569E-04   -0.17442E-03   928   0.302E-01    0.108E-01
DAV:   7    -0.154791030099E+03    0.57502E-04   -0.35358E-04   880   0.130E-01    0.803E-02
DAV:   8    -0.154791037291E+03   -0.71921E-05   -0.22516E-04   936   0.892E-02    0.600E-02
DAV:   9    -0.154791026113E+03    0.11178E-04   -0.18059E-04   904   0.818E-02    0.327E-02
DAV:  10    -0.154791027504E+03   -0.13904E-05   -0.29665E-05   504   0.427E-02
   6 F= -.15479103E+03 E0= -.15472760E+03  d E =-.338909E+01
 curvature:  -1.11 expect dE=-0.137E+00 dE for cont linesearch -0.281E-02
 ZBRENT: interpolating
 opt :   0.5063  next Energy=  -154.791440 (dE=-0.339E+01)
 bond charge predicted
       N       E                     dE             d eps       ncg     rms          rms(c)
DAV:   1    -0.154793663538E+03   -0.26374E-02   -0.37900E-02   552   0.154E+00    0.697E-01
DAV:   2    -0.154975536101E+03   -0.18187E+00   -0.76893E-01  1088   0.552E+00    0.645E+00
DAV:   3    -0.154789673298E+03    0.18586E+00   -0.70349E-01  1088   0.550E+00    0.351E-01
DAV:   4    -0.154791977568E+03   -0.23043E-02   -0.41391E-02   904   0.121E+00    0.234E-01
DAV:   5    -0.154791495362E+03    0.48221E-03   -0.56855E-03   920   0.530E-01    0.153E-01
DAV:   6    -0.154791464691E+03    0.30671E-04   -0.89925E-04   892   0.210E-01    0.101E-01
DAV:   7    -0.154791422013E+03    0.42678E-04   -0.17530E-04   896   0.969E-02    0.644E-02
DAV:   8    -0.154791424059E+03   -0.20463E-05   -0.13509E-04   896   0.726E-02    0.513E-02
DAV:   9    -0.154791413681E+03    0.10379E-04   -0.10873E-04   776   0.638E-02    0.268E-02
DAV:  10    -0.154791410730E+03    0.29506E-05   -0.18496E-05   440   0.363E-02
   7 F= -.15479141E+03 E0= -.15472816E+03  d E =-.338948E+01
 curvature:  -0.01 expect dE=-0.175E-02 dE for cont linesearch -0.839E-06
 ZBRENT: interpolating
 opt :   0.5058  next Energy=  -154.791418 (dE=-0.339E+01)
 bond charge predicted
       N       E                     dE             d eps       ncg     rms          rms(c)
DAV:   1    -0.154791436263E+03   -0.22582E-04   -0.37039E-04   576   0.152E-01    0.691E-02
DAV:   2    -0.154793298265E+03   -0.18620E-02   -0.74477E-03  1088   0.545E-01    0.688E-01
DAV:   3    -0.154791405815E+03    0.18924E-02   -0.65925E-03  1088   0.521E-01    0.458E-02
DAV:   4    -0.154791421401E+03   -0.15586E-04   -0.44030E-04   928   0.131E-01    0.230E-02
DAV:   5    -0.154791415505E+03    0.58967E-05   -0.45640E-05   616   0.530E-02
   8 F= -.15479142E+03 E0= -.15472816E+03  d E =-.338948E+01
 curvature:  -0.12 expect dE=-0.147E-01 dE for cont linesearch -0.724E-05
 ZBRENT: bisectioning
 opt :   0.5054  next Energy=  -154.791429 (dE=-0.339E+01)
 bond charge predicted
       N       E                     dE             d eps       ncg     rms          rms(c)
DAV:   1    -0.154791432877E+03   -0.11475E-04   -0.31834E-04   564   0.141E-01    0.681E-02
DAV:   2    -0.154793288081E+03   -0.18552E-02   -0.72997E-03  1088   0.543E-01    0.686E-01
DAV:   3    -0.154791403656E+03    0.18844E-02   -0.65669E-03  1088   0.523E-01    0.453E-02
DAV:   4    -0.154791418912E+03   -0.15256E-04   -0.41236E-04   900   0.124E-01    0.241E-02
DAV:   5    -0.154791412627E+03    0.62849E-05   -0.51989E-05   608   0.544E-02
   9 F= -.15479141E+03 E0= -.15472817E+03  d E =-.338948E+01
 curvature:  -0.23 expect dE=-0.272E-01 dE for cont linesearch -0.804E-05
 trial: gam= 0.01003 g(F)=  0.726E-01 g(S)=  0.451E-01 ort =-0.220E-01 (trialstep = 0.901E+00)
 search vector abs. value=  0.119E+00
 bond charge predicted
       N       E                     dE             d eps       ncg     rms          rms(c)
DAV:   1    -0.154978011905E+03   -0.18659E+00   -0.56167E+00   624   0.900E+00    0.242E+00
DAV:   2    -0.155808201532E+03   -0.83019E+00   -0.84422E+00   912   0.203E+01    0.934E+00
DAV:   3    -0.155060356888E+03    0.74784E+00   -0.57706E+00  1024   0.172E+01    0.727E+00
DAV:   4    -0.154888585184E+03    0.17177E+00   -0.94382E-01  1032   0.654E+00    0.103E+00
DAV:   5    -0.154887617088E+03    0.96810E-03   -0.13265E-01   920   0.256E+00    0.834E-01
DAV:   6    -0.154880331991E+03    0.72851E-02   -0.91398E-02   896   0.221E+00    0.548E-01
DAV:   7    -0.154880681229E+03   -0.34924E-03   -0.43396E-02   864   0.124E+00    0.539E-01
DAV:   8    -0.154878527567E+03    0.21537E-02   -0.15781E-02   880   0.797E-01    0.194E-01
DAV:   9    -0.154878611123E+03   -0.83556E-04   -0.67958E-03   896   0.552E-01    0.205E-01
DAV:  10    -0.154878225862E+03    0.38526E-03   -0.22756E-03   912   0.356E-01    0.485E-02
DAV:  11    -0.154878237320E+03   -0.11458E-04   -0.26127E-04   864   0.102E-01    0.334E-02
DAV:  12    -0.154878235108E+03    0.22124E-05   -0.47424E-05   672   0.484E-02
  10 F= -.15487824E+03 E0= -.15482293E+03  d E =-.868225E-01
 trial-energy change:   -0.086822  1 .order   -0.086493   -0.105888   -0.067099
 step:   2.2818(harm=  2.4598)  dis= 0.04139  next Energy=  -154.930826 (dE=-0.139E+00)
 bond charge predicted
       N       E                     dE             d eps       ncg     rms          rms(c)
DAV:   1    -0.155143907895E+03   -0.26567E+00   -0.13037E+01   596   0.137E+01    0.361E+00
DAV:   2    -0.157125144760E+03   -0.19812E+01   -0.17676E+01   944   0.302E+01    0.150E+01
DAV:   3    -0.155389858690E+03    0.17353E+01   -0.12251E+01  1056   0.261E+01    0.112E+01
DAV:   4    -0.154957477538E+03    0.43238E+00   -0.23261E+00  1040   0.105E+01    0.161E+00
DAV:   5    -0.154961517392E+03   -0.40399E-02   -0.38575E-01   944   0.416E+00    0.161E+00
DAV:   6    -0.154934586226E+03    0.26931E-01   -0.25410E-01   888   0.340E+00    0.750E-01
DAV:   7    -0.154937432514E+03   -0.28463E-02   -0.96992E-02   868   0.179E+00    0.818E-01
DAV:   8    -0.154931661414E+03    0.57711E-02   -0.38883E-02   872   0.130E+00    0.286E-01
DAV:   9    -0.154932101910E+03   -0.44050E-03   -0.13136E-02   880   0.753E-01    0.311E-01
DAV:  10    -0.154931222460E+03    0.87945E-03   -0.55764E-03   896   0.542E-01    0.726E-02
DAV:  11    -0.154931234207E+03   -0.11747E-04   -0.57044E-04   888   0.155E-01    0.382E-02
DAV:  12    -0.154931237377E+03   -0.31701E-05   -0.90017E-05   864   0.621E-02
  11 F= -.15493124E+03 E0= -.15488202E+03  d E =-.139825E+00
 curvature:  -1.23 expect dE=-0.849E-01 dE for cont linesearch -0.457E-04
 trial: gam= 0.57435 g(F)=  0.686E-01 g(S)=  0.722E-03 ort = 0.210E-02 (trialstep = 0.118E+01)
 search vector abs. value=  0.111E+00
 bond charge predicted
       N       E                     dE             d eps       ncg     rms          rms(c)
DAV:   1    -0.155017391876E+03   -0.86158E-01   -0.83401E+00   544   0.944E+00    0.138E+00
DAV:   2    -0.155371140849E+03   -0.35375E+00   -0.25990E+00   984   0.111E+01    0.846E+00
DAV:   3    -0.155092077278E+03    0.27906E+00   -0.19217E+00  1056   0.935E+00    0.389E+00
DAV:   4    -0.155012612388E+03    0.79465E-01   -0.57282E-01  1008   0.507E+00    0.809E-01
DAV:   5    -0.155014472351E+03   -0.18600E-02   -0.10407E-01   896   0.225E+00    0.776E-01
DAV:   6    -0.155009615162E+03    0.48572E-02   -0.59768E-02   872   0.150E+00    0.446E-01
DAV:   7    -0.155009058243E+03    0.55692E-03   -0.26777E-02   896   0.992E-01    0.331E-01
DAV:   8    -0.155008119774E+03    0.93847E-03   -0.74136E-03   880   0.617E-01    0.116E-01
DAV:   9    -0.155008060035E+03    0.59739E-04   -0.20208E-03   904   0.311E-01    0.720E-02
DAV:  10    -0.155008040968E+03    0.19067E-04   -0.32976E-04   888   0.127E-01    0.308E-02
DAV:  11    -0.155008045535E+03   -0.45678E-05   -0.20588E-04   872   0.926E-02    0.382E-02
DAV:  12    -0.155008034988E+03    0.10547E-04   -0.80867E-05   808   0.680E-02    0.125E-02
DAV:  13    -0.155008034182E+03    0.80676E-06   -0.10133E-05   344   0.303E-02
  12 F= -.15500803E+03 E0= -.15495634E+03  d E =-.767968E-01
 ZBRENT: can't locate minimum, use default step
 trial-energy change:   -0.076797  1 .order   -0.076935   -0.082984   -0.070886
 step:   4.7089(harm=  8.0754)  dis= 0.10964  next Energy=  -155.215860 (dE=-0.285E+00)
 bond charge predicted
       N       E                     dE             d eps       ncg     rms          rms(c)
DAV:   1    -0.155229697349E+03   -0.22166E+00   -0.75860E+01   544   0.293E+01    0.423E+00
DAV:   2    -0.159596196535E+03   -0.43665E+01   -0.29323E+01  1032   0.370E+01    0.300E+01
DAV:   3    -0.155579251540E+03    0.40169E+01   -0.19343E+01  1056   0.280E+01    0.868E+00
DAV:   4    -0.155208795151E+03    0.37046E+00   -0.42405E+00   964   0.133E+01    0.227E+00
DAV:   5    -0.155213196238E+03   -0.44011E-02   -0.71319E-01   888   0.619E+00    0.188E+00
DAV:   6    -0.155178944326E+03    0.34252E-01   -0.37001E-01   872   0.411E+00    0.105E+00
DAV:   7    -0.155189192059E+03   -0.10248E-01   -0.21634E-01   896   0.287E+00    0.129E+00
DAV:   8    -0.155173329628E+03    0.15862E-01   -0.13945E-01   876   0.240E+00    0.435E-01
DAV:   9    -0.155172336716E+03    0.99291E-03   -0.24075E-02   912   0.102E+00    0.268E-01
DAV:  10    -0.155171925465E+03    0.41125E-03   -0.41860E-03   872   0.459E-01    0.102E-01
DAV:  11    -0.155171975628E+03   -0.50162E-04   -0.20113E-03   872   0.284E-01    0.112E-01
DAV:  12    -0.155171881928E+03    0.93699E-04   -0.80444E-04   880   0.193E-01    0.269E-02
DAV:  13    -0.155171883941E+03   -0.20122E-05   -0.58661E-05   736   0.502E-02
  13 F= -.15517188E+03 E0= -.15511545E+03  d E =-.240647E+00
 curvature:  -4.84 expect dE=-0.512E+00 dE for cont linesearch -0.400E-01
 ZBRENT: increasing intervall
 opt :  11.7721  next Energy=  -155.174215 (dE=-0.243E+00)
 bond charge predicted
       N       E                     dE             d eps       ncg     rms          rms(c)
DAV:   1    -0.155173238523E+03   -0.13566E-02   -0.31778E+02   560   0.653E+01    0.931E+00
DAV:   2    -0.177058436627E+03   -0.21885E+02   -0.15202E+02  1072   0.877E+01    0.582E+01
DAV:   3    -0.155294413438E+03    0.21764E+02   -0.87482E+01  1032   0.570E+01    0.116E+01
DAV:   4    -0.155233318864E+03    0.61095E-01   -0.16140E+01   936   0.223E+01    0.480E+00
DAV:   5    -0.155196356252E+03    0.36963E-01   -0.21831E+00   880   0.104E+01    0.342E+00
DAV:   6    -0.155112643752E+03    0.83713E-01   -0.94968E-01   888   0.681E+00    0.240E+00
DAV:   7    -0.155180067638E+03   -0.67424E-01   -0.97629E-01   880   0.632E+00    0.312E+00
DAV:   8    -0.155097589059E+03    0.82479E-01   -0.76543E-01   896   0.501E+00    0.114E+00
DAV:   9    -0.155090264340E+03    0.73247E-02   -0.12193E-01   872   0.249E+00    0.707E-01
DAV:  10    -0.155087495210E+03    0.27691E-02   -0.29731E-02   960   0.128E+00    0.334E-01
DAV:  11    -0.155086908962E+03    0.58625E-03   -0.18176E-02   888   0.875E-01    0.233E-01
DAV:  12    -0.155089517727E+03   -0.26088E-02   -0.43082E-03   888   0.461E-01    0.145E-01
DAV:  13    -0.155096126476E+03   -0.66087E-02   -0.43476E-02   888   0.230E-01    0.174E-01
DAV:  14    -0.155097332759E+03   -0.12063E-02   -0.12387E-02   792   0.696E-02    0.174E-01
DAV:  15    -0.155097515754E+03   -0.18299E-03   -0.17602E-03   440   0.201E-02    0.177E-01
DAV:  16    -0.155097341982E+03    0.17377E-03   -0.46959E-04   880   0.799E-02    0.127E-01
DAV:  17    -0.155097303032E+03    0.38950E-04   -0.15894E-03   944   0.200E-01    0.933E-02
DAV:  18    -0.155097225583E+03    0.77449E-04   -0.34438E-04   848   0.124E-01    0.189E-02
DAV:  19    -0.155097223171E+03    0.24121E-05   -0.22916E-05   480   0.314E-02
  14 F= -.15509722E+03 E0= -.15503446E+03  d E =-.165986E+00
 curvature:  -0.28 expect dE=-0.127E+00 dE for cont linesearch -0.448E-02
 ZBRENT: bracketing found
 ZBRENT: interpolating
 opt :   7.6679  next Energy=  -155.216674 (dE=-0.285E+00)
 bond charge predicted
       N       E                     dE             d eps       ncg     rms          rms(c)
DAV:   1    -0.155454667532E+03   -0.35744E+00   -0.10586E+02   544   0.362E+01    0.629E+00
DAV:   2    -0.163955610705E+03   -0.85009E+01   -0.68266E+01   992   0.599E+01    0.307E+01
DAV:   3    -0.155752795324E+03    0.82028E+01   -0.36231E+01  1072   0.466E+01    0.109E+01
DAV:   4    -0.155295587997E+03    0.45721E+00   -0.60020E+00   920   0.177E+01    0.424E+00
DAV:   5    -0.155256695202E+03    0.38893E-01   -0.11949E+00  1000   0.752E+00    0.253E+00
DAV:   6    -0.155251786453E+03    0.49087E-02   -0.66683E-01   944   0.527E+00    0.237E+00
DAV:   7    -0.155217080688E+03    0.34706E-01   -0.44847E-01   944   0.453E+00    0.108E+00
DAV:   8    -0.155219957774E+03   -0.28771E-02   -0.14486E-01   916   0.261E+00    0.970E-01
DAV:   9    -0.155209419810E+03    0.10538E-01   -0.77045E-02   904   0.189E+00    0.203E-01
DAV:  10    -0.155210011392E+03   -0.59158E-03   -0.10143E-02   904   0.694E-01    0.226E-01
DAV:  11    -0.155209640095E+03    0.37130E-03   -0.35145E-03   864   0.435E-01    0.951E-02
DAV:  12    -0.155209595230E+03    0.44865E-04   -0.61463E-04   872   0.173E-01    0.295E-02
DAV:  13    -0.155209599211E+03   -0.39810E-05   -0.79829E-05   792   0.526E-02
  15 F= -.15520960E+03 E0= -.15515120E+03  d E =-.278362E+00
 curvature:  -2.82 expect dE=-0.599E+00 dE for cont linesearch -0.102E-02
 trial: gam= 3.24606 g(F)=  0.209E+00 g(S)=  0.384E-02 ort =-0.633E-02 (trialstep = 0.205E+00)
 search vector abs. value=  0.134E+01
 bond charge predicted
       N       E                     dE             d eps       ncg     rms          rms(c)
DAV:   1    -0.155244769853E+03   -0.35175E-01   -0.30704E+00   544   0.589E+00    0.716E-01
DAV:   2    -0.155297765770E+03   -0.52996E-01   -0.53274E-01   944   0.489E+00    0.253E+00
DAV:   3    -0.155254284412E+03    0.43481E-01   -0.34813E-01  1024   0.442E+00    0.134E+00
DAV:   4    -0.155247225702E+03    0.70587E-02   -0.62447E-02  1032   0.192E+00    0.572E-01
DAV:   5    -0.155246938385E+03    0.28732E-03   -0.29185E-02   932   0.115E+00    0.402E-01
DAV:   6    -0.155245242052E+03    0.16963E-02   -0.17414E-02   888   0.922E-01    0.190E-01
DAV:   7    -0.155245265819E+03   -0.23767E-04   -0.63223E-03   916   0.549E-01    0.177E-01
DAV:   8    -0.155244999523E+03    0.26630E-03   -0.27557E-03   880   0.350E-01    0.831E-02
DAV:   9    -0.155244947578E+03    0.51945E-04   -0.79209E-04   888   0.180E-01    0.347E-02
DAV:  10    -0.155244944771E+03    0.28069E-05   -0.89684E-05   800   0.700E-02
  16 F= -.15524494E+03 E0= -.15518537E+03  d E =-.353456E-01
 ZBRENT: can't locate minimum, use default step
 trial-energy change:   -0.035346  1 .order   -0.035341   -0.039322   -0.031359
 step:   0.8195(harm=  1.0116)  dis= 0.06718  next Energy=  -155.306685 (dE=-0.971E-01)
 bond charge predicted
       N       E                     dE             d eps       ncg     rms          rms(c)
DAV:   1    -0.155292931443E+03   -0.47984E-01   -0.27821E+01   544   0.177E+01    0.203E+00
DAV:   2    -0.155681051880E+03   -0.38812E+00   -0.41464E+00   968   0.132E+01    0.725E+00
DAV:   3    -0.155390452975E+03    0.29060E+00   -0.28698E+00  1024   0.123E+01    0.395E+00
DAV:   4    -0.155325294695E+03    0.65158E-01   -0.62917E-01  1048   0.586E+00    0.162E+00
DAV:   5    -0.155320865399E+03    0.44293E-02   -0.27007E-01   888   0.342E+00    0.116E+00
DAV:   6    -0.155305776675E+03    0.15089E-01   -0.13193E-01   864   0.256E+00    0.461E-01
DAV:   7    -0.155307684438E+03   -0.19078E-02   -0.40003E-02   912   0.141E+00    0.512E-01
DAV:   8    -0.155304687910E+03    0.29965E-02   -0.20669E-02   920   0.108E+00    0.159E-01
DAV:   9    -0.155304775447E+03   -0.87537E-04   -0.40158E-03   904   0.415E-01    0.132E-01
DAV:  10    -0.155304629381E+03    0.14607E-03   -0.14677E-03   880   0.264E-01    0.630E-02
DAV:  11    -0.155304621456E+03    0.79252E-05   -0.43805E-04   904   0.132E-01    0.446E-02
DAV:  12    -0.155304613690E+03    0.77655E-05   -0.16771E-04   864   0.885E-02    0.241E-02
DAV:  13    -0.155304609665E+03    0.40247E-05   -0.51043E-05   736   0.513E-02
  17 F= -.15530461E+03 E0= -.15524170E+03  d E =-.950105E-01
 curvature:  -3.33 expect dE=-0.288E+00 dE for cont linesearch -0.460E-02
 ZBRENT: extrapolating
 opt :   1.0597  next Energy=  -155.309777 (dE=-0.100E+00)
 bond charge predicted
       N       E                     dE             d eps       ncg     rms          rms(c)
DAV:   1    -0.155309873935E+03   -0.52602E-02   -0.42703E+00   544   0.693E+00    0.830E-01
DAV:   2    -0.155372575384E+03   -0.62701E-01   -0.70815E-01   912   0.556E+00    0.261E+00
DAV:   3    -0.155318656690E+03    0.53919E-01   -0.45010E-01   992   0.494E+00    0.126E+00
DAV:   4    -0.155314007884E+03    0.46488E-02   -0.62661E-02  1024   0.197E+00    0.722E-01
DAV:   5    -0.155312865197E+03    0.11427E-02   -0.34488E-02   920   0.124E+00    0.431E-01
DAV:   6    -0.155310988316E+03    0.18769E-02   -0.21119E-02   848   0.103E+00    0.192E-01
DAV:   7    -0.155311298694E+03   -0.31038E-03   -0.77842E-03   944   0.605E-01    0.235E-01
DAV:   8    -0.155310722364E+03    0.57633E-03   -0.41450E-03   896   0.463E-01    0.804E-02
DAV:   9    -0.155310702727E+03    0.19637E-04   -0.95464E-04   904   0.197E-01    0.511E-02
DAV:  10    -0.155310687048E+03    0.15678E-04   -0.20643E-04   888   0.109E-01    0.220E-02
DAV:  11    -0.155310685109E+03    0.19397E-05   -0.53461E-05   760   0.492E-02
  18 F= -.15531069E+03 E0= -.15524602E+03  d E =-.101086E+00
 curvature:  -3.74 expect dE=-0.312E+00 dE for cont linesearch -0.171E-03
 trial: gam= 0.04964 g(F)=  0.668E-01 g(S)=  0.167E-01 ort = 0.782E-02 (trialstep = 0.376E+00)
 search vector abs. value=  0.876E-01
 bond charge predicted
       N       E                     dE             d eps       ncg     rms          rms(c)
DAV:   1    -0.155350491523E+03   -0.39804E-01   -0.89955E-01   772   0.461E+00    0.141E+00
DAV:   2    -0.155930082281E+03   -0.57959E+00   -0.34733E+00  1088   0.119E+01    0.115E+01
DAV:   3    -0.155357217314E+03    0.57286E+00   -0.29193E+00  1072   0.102E+01    0.177E+00
DAV:   4    -0.155338620539E+03    0.18597E-01   -0.23379E-01   928   0.325E+00    0.429E-01
DAV:   5    -0.155341061772E+03   -0.24412E-02   -0.60183E-02   896   0.161E+00    0.612E-01
DAV:   6    -0.155337860366E+03    0.32014E-02   -0.22323E-02   872   0.904E-01    0.277E-01
DAV:   7    -0.155337671607E+03    0.18876E-03   -0.39781E-03   864   0.432E-01    0.182E-01
DAV:   8    -0.155337585043E+03    0.86564E-04   -0.11733E-03   992   0.240E-01    0.869E-02
DAV:   9    -0.155337603554E+03   -0.18511E-04   -0.91966E-04   888   0.206E-01    0.869E-02
DAV:  10    -0.155337538392E+03    0.65162E-04   -0.35175E-04   892   0.135E-01    0.316E-02
DAV:  11    -0.155337537505E+03    0.88675E-06   -0.38191E-05   616   0.412E-02
  19 F= -.15533754E+03 E0= -.15527119E+03  d E =-.268524E-01
 trial-energy change:   -0.026852  1 .order   -0.026665   -0.031526   -0.021804
 step:   1.0179(harm=  1.2187)  dis= 0.02272  next Energy=  -155.357097 (dE=-0.464E-01)
 bond charge predicted
       N       E                     dE             d eps       ncg     rms          rms(c)
DAV:   1    -0.155400250905E+03   -0.62713E-01   -0.26519E+00   768   0.792E+00    0.242E+00
DAV:   2    -0.157101535915E+03   -0.17013E+01   -0.10868E+01  1088   0.202E+01    0.191E+01
DAV:   3    -0.155400618446E+03    0.17009E+01   -0.76050E+00  1072   0.166E+01    0.279E+00
DAV:   4    -0.155364674480E+03    0.35944E-01   -0.65841E-01   936   0.535E+00    0.725E-01
DAV:   5    -0.155372033781E+03   -0.73593E-02   -0.17671E-01   912   0.276E+00    0.104E+00
DAV:   6    -0.155362829833E+03    0.92039E-02   -0.66796E-02   872   0.154E+00    0.481E-01
DAV:   7    -0.155362271010E+03    0.55882E-03   -0.11255E-02   864   0.715E-01    0.307E-01
DAV:   8    -0.155361960443E+03    0.31057E-03   -0.33242E-03   964   0.417E-01    0.140E-01
DAV:   9    -0.155361990299E+03   -0.29855E-04   -0.20414E-03   872   0.299E-01    0.128E-01
DAV:  10    -0.155361859793E+03    0.13051E-03   -0.77368E-04   888   0.203E-01    0.546E-02
DAV:  11    -0.155361858919E+03    0.87356E-06   -0.10394E-04   864   0.659E-02    0.346E-02
DAV:  12    -0.155361855871E+03    0.30482E-05   -0.41781E-05   624   0.461E-02
  20 F= -.15536186E+03 E0= -.15529242E+03  d E =-.511708E-01
 curvature:  -0.60 expect dE=-0.163E-01 dE for cont linesearch -0.200E-02
 ZBRENT: extrapolating
 opt :   1.2855  next Energy=  -155.364139 (dE=-0.535E-01)
 bond charge predicted
       N       E                     dE             d eps       ncg     rms          rms(c)
DAV:   1    -0.155370995896E+03   -0.91370E-02   -0.45955E-01   788   0.326E+00    0.102E+00
DAV:   2    -0.155678254075E+03   -0.30726E+00   -0.17462E+00  1088   0.847E+00    0.843E+00
DAV:   3    -0.155374685671E+03    0.30357E+00   -0.15479E+00  1072   0.747E+00    0.131E+00
DAV:   4    -0.155364877292E+03    0.98084E-02   -0.12522E-01   912   0.237E+00    0.308E-01
DAV:   5    -0.155365987623E+03   -0.11103E-02   -0.31642E-02   904   0.116E+00    0.441E-01
DAV:   6    -0.155364332308E+03    0.16553E-02   -0.11574E-02   884   0.655E-01    0.198E-01
DAV:   7    -0.155364231788E+03    0.10052E-03   -0.19854E-03   872   0.297E-01    0.132E-01
DAV:   8    -0.155364197297E+03    0.34491E-04   -0.69555E-04  1000   0.176E-01    0.702E-02
DAV:   9    -0.155364204361E+03   -0.70639E-05   -0.69578E-04   872   0.165E-01    0.657E-02
DAV:  10    -0.155364166146E+03    0.38215E-04   -0.25862E-04   888   0.112E-01    0.282E-02
DAV:  11    -0.155364163274E+03    0.28728E-05   -0.16175E-05   432   0.336E-02
  21 F= -.15536416E+03 E0= -.15529330E+03  d E =-.534782E-01
 curvature:  -0.69 expect dE=-0.280E-01 dE for cont linesearch -0.688E-05
 trial: gam= 0.51271 g(F)=  0.623E-02 g(S)=  0.346E-01 ort =-0.937E-03 (trialstep = 0.558E+00)
 search vector abs. value=  0.629E-01
 bond charge predicted
       N       E                     dE             d eps       ncg     rms          rms(c)
DAV:   1    -0.155417126952E+03   -0.52961E-01   -0.13537E+00   736   0.615E+00    0.256E+00
DAV:   2    -0.157274838776E+03   -0.18577E+01   -0.10468E+01  1088   0.221E+01    0.176E+01
DAV:   3    -0.155355631149E+03    0.19192E+01   -0.74927E+00  1072   0.217E+01    0.178E+00
DAV:   4    -0.155379136934E+03   -0.23506E-01   -0.67280E-01   880   0.520E+00    0.490E-01
DAV:   5    -0.155383384740E+03   -0.42478E-02   -0.84488E-02   928   0.182E+00    0.612E-01
DAV:   6    -0.155380968693E+03    0.24160E-02   -0.33116E-02   896   0.116E+00    0.428E-01
DAV:   7    -0.155380378023E+03    0.59067E-03   -0.84371E-03   904   0.570E-01    0.295E-01
DAV:   8    -0.155380109268E+03    0.26876E-03   -0.51309E-03  1024   0.445E-01    0.189E-01
DAV:   9    -0.155380187926E+03   -0.78658E-04   -0.21595E-03   912   0.288E-01    0.184E-01
DAV:  10    -0.155379941899E+03    0.24603E-03   -0.12557E-03   968   0.222E-01    0.305E-02
DAV:  11    -0.155379942790E+03   -0.89091E-06   -0.15873E-04   920   0.725E-02    0.220E-02
DAV:  12    -0.155379938807E+03    0.39831E-05   -0.47616E-05   736   0.426E-02
  22 F= -.15537994E+03 E0= -.15530848E+03  d E =-.157755E-01
 trial-energy change:   -0.015776  1 .order   -0.016078   -0.022515   -0.009641
 step:   1.1462(harm=  0.9755)  dis= 0.01854  next Energy=  -155.384669 (dE=-0.205E-01)
 bond charge predicted
       N       E                     dE             d eps       ncg     rms          rms(c)
DAV:   1    -0.155424617587E+03   -0.44675E-01   -0.15162E+00   736   0.652E+00    0.273E+00
DAV:   2    -0.157492159310E+03   -0.20675E+01   -0.11800E+01  1088   0.235E+01    0.185E+01
DAV:   3    -0.155355220630E+03    0.21369E+01   -0.83690E+00  1072   0.231E+01    0.191E+00
DAV:   4    -0.155381446474E+03   -0.26226E-01   -0.76706E-01   880   0.558E+00    0.518E-01
DAV:   5    -0.155386353309E+03   -0.49068E-02   -0.95732E-02   928   0.194E+00    0.662E-01
DAV:   6    -0.155383605058E+03    0.27483E-02   -0.37828E-02   888   0.124E+00    0.457E-01
DAV:   7    -0.155382919948E+03    0.68511E-03   -0.97059E-03   904   0.614E-01    0.318E-01
DAV:   8    -0.155382632513E+03    0.28744E-03   -0.58970E-03  1032   0.481E-01    0.211E-01
DAV:   9    -0.155382665902E+03   -0.33390E-04   -0.21255E-03   928   0.297E-01    0.174E-01
DAV:  10    -0.155382430963E+03    0.23494E-03   -0.12647E-03   952   0.221E-01    0.305E-02
DAV:  11    -0.155382431196E+03   -0.23272E-06   -0.16716E-04   912   0.751E-02    0.225E-02
DAV:  12    -0.155382427114E+03    0.40819E-05   -0.51835E-05   732   0.459E-02
  23 F= -.15538243E+03 E0= -.15531002E+03  d E =-.182638E-01
 curvature:  -0.63 expect dE=-0.136E-01 dE for cont linesearch -0.575E-03
 ZBRENT: interpolating
 opt :   0.9672  next Energy=  -155.383103 (dE=-0.189E-01)
 bond charge predicted
       N       E                     dE             d eps       ncg     rms          rms(c)
DAV:   1    -0.155387143515E+03   -0.47123E-02   -0.14295E-01   732   0.201E+00    0.806E-01
DAV:   2    -0.155615590135E+03   -0.22845E+00   -0.11782E+00  1088   0.701E+00    0.731E+00
DAV:   3    -0.155386461064E+03    0.22913E+00   -0.10211E+00  1088   0.625E+00    0.846E-01
DAV:   4    -0.155383579041E+03    0.28820E-02   -0.71617E-02   912   0.172E+00    0.169E-01
DAV:   5    -0.155383661025E+03   -0.81984E-04   -0.82787E-03   896   0.616E-01    0.212E-01
DAV:   6    -0.155383278942E+03    0.38208E-03   -0.33666E-03   896   0.362E-01    0.968E-02
DAV:   7    -0.155383276204E+03    0.27378E-05   -0.59851E-04   896   0.156E-01    0.890E-02
DAV:   8    -0.155383244508E+03    0.31695E-04   -0.43591E-04  1032   0.143E-01    0.459E-02
DAV:   9    -0.155383239950E+03    0.45588E-05   -0.25708E-04   880   0.977E-02    0.363E-02
DAV:  10    -0.155383229275E+03    0.10675E-04   -0.58037E-05   748   0.543E-02    0.887E-03
DAV:  11    -0.155383229881E+03   -0.60692E-06   -0.77763E-06   364   0.189E-02
  24 F= -.15538323E+03 E0= -.15531117E+03  d E =-.190666E-01
 curvature:  -0.75 expect dE=-0.113E-01 dE for cont linesearch -0.776E-05
 trial: gam= 0.38441 g(F)=  0.830E-02 g(S)=  0.691E-02 ort =-0.810E-03 (trialstep = 0.640E+00)
 search vector abs. value=  0.239E-01
 bond charge predicted
       N       E                     dE             d eps       ncg     rms          rms(c)
DAV:   1    -0.155398302999E+03   -0.15074E-01   -0.51877E-01   560   0.284E+00    0.665E-01
DAV:   2    -0.155448600907E+03   -0.50298E-01   -0.51783E-01   880   0.510E+00    0.235E+00
DAV:   3    -0.155401045326E+03    0.47556E-01   -0.39187E-01  1016   0.420E+00    0.142E+00
DAV:   4    -0.155392327215E+03    0.87181E-02   -0.48822E-02  1056   0.165E+00    0.257E-01
DAV:   5    -0.155392514688E+03   -0.18747E-03   -0.12819E-02   888   0.737E-01    0.287E-01
DAV:   6    -0.155391746222E+03    0.76847E-03   -0.91309E-03   928   0.607E-01    0.150E-01
DAV:   7    -0.155391676257E+03    0.69964E-04   -0.28182E-03   888   0.390E-01    0.107E-01
DAV:   8    -0.155391564443E+03    0.11181E-03   -0.10199E-03   896   0.222E-01    0.440E-02
DAV:   9    -0.155391548218E+03    0.16226E-04   -0.31046E-04   880   0.112E-01    0.225E-02
DAV:  10    -0.155391543144E+03    0.50735E-05   -0.30998E-05   528   0.465E-02
  25 F= -.15539154E+03 E0= -.15531859E+03  d E =-.831326E-02
 ZBRENT: can't locate minimum, use default step
 trial-energy change:   -0.008313  1 .order   -0.008357   -0.009529   -0.007186
 step:   2.5586(harm=  2.6013)  dis= 0.02189  next Energy=  -155.402605 (dE=-0.194E-01)
 bond charge predicted
       N       E                     dE             d eps       ncg     rms          rms(c)
DAV:   1    -0.155467380922E+03   -0.75833E-01   -0.47258E+00   584   0.860E+00    0.204E+00
DAV:   2    -0.155948031498E+03   -0.48065E+00   -0.50663E+00   888   0.158E+01    0.727E+00
DAV:   3    -0.155494454435E+03    0.45358E+00   -0.39458E+00  1000   0.129E+01    0.426E+00
DAV:   4    -0.155409251109E+03    0.85203E-01   -0.42858E-01  1056   0.515E+00    0.799E-01
DAV:   5    -0.155411396715E+03   -0.21456E-02   -0.13672E-01   888   0.232E+00    0.900E-01
DAV:   6    -0.155404345859E+03    0.70509E-02   -0.89142E-02   940   0.186E+00    0.490E-01
DAV:   7    -0.155403084795E+03    0.12611E-02   -0.27402E-02   888   0.120E+00    0.304E-01
DAV:   8    -0.155402697245E+03    0.38755E-03   -0.12162E-02   912   0.713E-01    0.225E-01
DAV:   9    -0.155402139277E+03    0.55797E-03   -0.51565E-03   872   0.441E-01    0.557E-02
DAV:  10    -0.155402137209E+03    0.20675E-05   -0.36827E-04   848   0.130E-01    0.365E-02
DAV:  11    -0.155402133966E+03    0.32436E-05   -0.11431E-04   880   0.717E-02    0.296E-02
DAV:  12    -0.155402131144E+03    0.28219E-05   -0.52004E-05   688   0.506E-02
  26 F= -.15540213E+03 E0= -.15532557E+03  d E =-.189013E-01
 curvature:  -2.08 expect dE=-0.281E-01 dE for cont linesearch -0.306E-06
 trial: gam= 0.81181 g(F)=  0.129E-01 g(S)=  0.568E-03 ort =-0.592E-04 (trialstep = 0.839E+00)
 search vector abs. value=  0.291E-01
 bond charge predicted
       N       E                     dE             d eps       ncg     rms          rms(c)
DAV:   1    -0.155413778939E+03   -0.11645E-01   -0.11395E+00   544   0.360E+00    0.571E-01
DAV:   2    -0.155450477209E+03   -0.36698E-01   -0.39100E-01   888   0.388E+00    0.191E+00
DAV:   3    -0.155415786900E+03    0.34690E-01   -0.24704E-01   904   0.317E+00    0.929E-01
DAV:   4    -0.155413103416E+03    0.26835E-02   -0.30207E-02  1000   0.130E+00    0.303E-01
DAV:   5    -0.155413929843E+03   -0.82643E-03   -0.18467E-02   960   0.884E-01    0.437E-01
DAV:   6    -0.155412156025E+03    0.17738E-02   -0.12414E-02   888   0.689E-01    0.126E-01
DAV:   7    -0.155412171415E+03   -0.15390E-04   -0.28927E-03   896   0.337E-01    0.101E-01
DAV:   8    -0.155412074022E+03    0.97393E-04   -0.85349E-04   912   0.203E-01    0.461E-02
DAV:   9    -0.155412068135E+03    0.58868E-05   -0.26638E-04   856   0.115E-01    0.282E-02
DAV:  10    -0.155412061791E+03    0.63445E-05   -0.59172E-05   728   0.593E-02
  27 F= -.15541206E+03 E0= -.15533288E+03  d E =-.993065E-02
 ZBRENT: can't locate minimum, use default step
 trial-energy change:   -0.009931  1 .order   -0.009966   -0.011280   -0.008651
 step:   3.3551(harm=  3.5978)  dis= 0.04595  next Energy=  -155.426324 (dE=-0.242E-01)
 bond charge predicted
       N       E                     dE             d eps       ncg     rms          rms(c)
DAV:   1    -0.155444725826E+03   -0.32658E-01   -0.10273E+01   552   0.110E+01    0.180E+00
DAV:   2    -0.155794796815E+03   -0.35007E+00   -0.40074E+00   880   0.123E+01    0.577E+00
DAV:   3    -0.155465289578E+03    0.32951E+00   -0.23889E+00   928   0.944E+00    0.296E+00
DAV:   4    -0.155433755446E+03    0.31534E-01   -0.26791E-01  1008   0.391E+00    0.831E-01
DAV:   5    -0.155437306497E+03   -0.35511E-02   -0.12356E-01   936   0.243E+00    0.112E+00
DAV:   6    -0.155427344472E+03    0.99620E-02   -0.91190E-02   880   0.188E+00    0.472E-01
DAV:   7    -0.155426242048E+03    0.11024E-02   -0.27831E-02   896   0.110E+00    0.281E-01
DAV:   8    -0.155425801760E+03    0.44029E-03   -0.72463E-03   896   0.630E-01    0.169E-01
DAV:   9    -0.155425516457E+03    0.28530E-03   -0.34632E-03   888   0.429E-01    0.763E-02
DAV:  10    -0.155425490816E+03    0.25641E-04   -0.40000E-04   872   0.156E-01    0.386E-02
DAV:  11    -0.155425488428E+03    0.23881E-05   -0.13935E-04   880   0.800E-02    0.267E-02
DAV:  12    -0.155425486576E+03    0.18523E-05   -0.67055E-05   760   0.593E-02
  28 F= -.15542549E+03 E0= -.15534096E+03  d E =-.233554E-01
 curvature:  -3.87 expect dE=-0.480E-01 dE for cont linesearch -0.609E-05
 trial: gam= 0.91361 g(F)=  0.630E-02 g(S)=  0.609E-02 ort = 0.214E-03 (trialstep = 0.105E+01)
 search vector abs. value=  0.371E-01
 bond charge predicted
       N       E                     dE             d eps       ncg     rms          rms(c)
DAV:   1    -0.155437602317E+03   -0.12114E-01   -0.23425E+00   552   0.542E+00    0.115E+00
DAV:   2    -0.155794523673E+03   -0.35692E+00   -0.18210E+00  1068   0.943E+00    0.830E+00
DAV:   3    -0.155436759189E+03    0.35776E+00   -0.13605E+00  1072   0.870E+00    0.847E-01
DAV:   4    -0.155438171501E+03   -0.14123E-02   -0.11551E-01   884   0.226E+00    0.325E-01
DAV:   5    -0.155439798681E+03   -0.16272E-02   -0.33121E-02   936   0.122E+00    0.535E-01
DAV:   6    -0.155437322229E+03    0.24765E-02   -0.18104E-02   908   0.803E-01    0.260E-01
DAV:   7    -0.155437215507E+03    0.10672E-03   -0.36458E-03  1064   0.420E-01    0.155E-01
DAV:   8    -0.155437026369E+03    0.18914E-03   -0.14041E-03   888   0.260E-01    0.694E-02
DAV:   9    -0.155437023195E+03    0.31732E-05   -0.32147E-04   944   0.120E-01    0.361E-02
DAV:  10    -0.155437014744E+03    0.84513E-05   -0.11192E-04   848   0.737E-02    0.215E-02
DAV:  11    -0.155437010837E+03    0.39067E-05   -0.26662E-05   536   0.382E-02
  29 F= -.15543701E+03 E0= -.15535146E+03  d E =-.115243E-01
 trial-energy change:   -0.011524  1 .order   -0.011534   -0.013271   -0.009797
 step:   4.0262(harm=  4.0262)  dis= 0.04150  next Energy=  -155.450839 (dE=-0.254E-01)
 bond charge predicted
       N       E                     dE             d eps       ncg     rms          rms(c)
DAV:   1    -0.155460261722E+03   -0.23247E-01   -0.18625E+01   544   0.149E+01    0.326E+00
DAV:   2    -0.158032723881E+03   -0.25725E+01   -0.15788E+01  1088   0.268E+01    0.205E+01
DAV:   3    -0.155423549089E+03    0.26092E+01   -0.10061E+01  1088   0.253E+01    0.207E+00
DAV:   4    -0.155462735113E+03   -0.39186E-01   -0.94133E-01   880   0.615E+00    0.866E-01
DAV:   5    -0.155468195230E+03   -0.54601E-02   -0.18635E-01   936   0.293E+00    0.131E+00
DAV:   6    -0.155458523894E+03    0.96713E-02   -0.99202E-02   896   0.194E+00    0.821E-01
DAV:   7    -0.155456143240E+03    0.23807E-02   -0.39035E-02   968   0.133E+00    0.452E-01
DAV:   8    -0.155454935890E+03    0.12073E-02   -0.17851E-02  1000   0.918E-01    0.337E-01
DAV:   9    -0.155454672747E+03    0.26314E-03   -0.57677E-03   896   0.505E-01    0.228E-01
DAV:  10    -0.155454377663E+03    0.29508E-03   -0.26098E-03   968   0.337E-01    0.739E-02
DAV:  11    -0.155454378164E+03   -0.50160E-06   -0.84113E-04   880   0.192E-01    0.519E-02
DAV:  12    -0.155454349587E+03    0.28578E-04   -0.19704E-04   872   0.105E-01    0.147E-02
DAV:  13    -0.155454350130E+03   -0.54326E-06   -0.18191E-05   464   0.360E-02
  30 F= -.15545435E+03 E0= -.15536771E+03  d E =-.288636E-01
 curvature:  -5.93 expect dE=-0.372E+00 dE for cont linesearch -0.102E-02
 trial: gam= 4.92963 g(F)=  0.164E-01 g(S)=  0.462E-01 ort = 0.253E-02 (trialstep = 0.618E-01)
 search vector abs. value=  0.989E+00
 bond charge predicted
       N       E                     dE             d eps       ncg     rms          rms(c)
DAV:   1    -0.155458743705E+03   -0.43941E-02   -0.20997E-01   544   0.151E+00    0.222E-01
DAV:   2    -0.155472884836E+03   -0.14141E-01   -0.72000E-02  1080   0.204E+00    0.171E+00
DAV:   3    -0.155459721186E+03    0.13164E-01   -0.52071E-02  1072   0.168E+00    0.343E-01
DAV:   4    -0.155459103672E+03    0.61751E-03   -0.72326E-03   936   0.568E-01    0.964E-02
DAV:   5    -0.155459065253E+03    0.38419E-04   -0.11505E-03   888   0.237E-01    0.784E-02
DAV:   6    -0.155459009731E+03    0.55522E-04   -0.78431E-04   896   0.199E-01    0.477E-02
DAV:   7    -0.155459014563E+03   -0.48324E-05   -0.41836E-04   864   0.135E-01    0.484E-02
DAV:   8    -0.155458987910E+03    0.26653E-04   -0.17720E-04   852   0.944E-02    0.115E-02
DAV:   9    -0.155458988366E+03   -0.45611E-06   -0.19229E-05   456   0.367E-02
  31 F= -.15545899E+03 E0= -.15537216E+03  d E =-.463824E-02
 ZBRENT: can't locate minimum, use default step
 trial-energy change:   -0.004638  1 .order   -0.004660   -0.004645   -0.004674
 step:   0.2473(harm=  0.2473)  dis= 0.01418  next Energy=  -155.473165 (dE=-0.188E-01)
 bond charge predicted
       N       E                     dE             d eps       ncg     rms          rms(c)
DAV:   1    -0.155470998207E+03   -0.12010E-01   -0.18929E+00   544   0.454E+00    0.638E-01
DAV:   2    -0.155582010233E+03   -0.11101E+00   -0.66375E-01  1072   0.578E+00    0.481E+00
DAV:   3    -0.155480027645E+03    0.10198E+00   -0.55135E-01  1072   0.465E+00    0.102E+00
DAV:   4    -0.155474560292E+03    0.54674E-02   -0.60992E-02   944   0.165E+00    0.296E-01
DAV:   5    -0.155474191413E+03    0.36888E-03   -0.10351E-02   888   0.715E-01    0.238E-01
DAV:   6    -0.155473686196E+03    0.50522E-03   -0.70655E-03   888   0.601E-01    0.146E-01
DAV:   7    -0.155473741857E+03   -0.55661E-04   -0.40364E-03   864   0.415E-01    0.151E-01
DAV:   8    -0.155473478416E+03    0.26344E-03   -0.17497E-03   872   0.293E-01    0.390E-02
DAV:   9    -0.155473491000E+03   -0.12584E-04   -0.34207E-04   888   0.116E-01    0.450E-02
DAV:  10    -0.155473479604E+03    0.11396E-04   -0.16508E-04   848   0.854E-02    0.233E-02
DAV:  11    -0.155473475551E+03    0.40526E-05   -0.26206E-05   512   0.399E-02
  32 F= -.15547348E+03 E0= -.15538638E+03  d E =-.191254E-01
 curvature:  -2.45 expect dE=-0.134E+00 dE for cont linesearch -0.162E-01
 ZBRENT: increasing intervall
 opt :   0.6182  next Energy=  -155.505377 (dE=-0.510E-01)
 bond charge predicted
       N       E                     dE             d eps       ncg     rms          rms(c)
DAV:   1    -0.155494997595E+03   -0.21518E-01   -0.75908E+00   544   0.918E+00    0.127E+00
DAV:   2    -0.155928376895E+03   -0.43338E+00   -0.27072E+00  1072   0.114E+01    0.943E+00
DAV:   3    -0.155529340014E+03    0.39904E+00   -0.23717E+00  1072   0.899E+00    0.194E+00
DAV:   4    -0.155510170371E+03    0.19170E-01   -0.25512E-01   928   0.322E+00    0.595E-01
DAV:   5    -0.155508863803E+03    0.13066E-02   -0.42236E-02   872   0.142E+00    0.473E-01
DAV:   6    -0.155506851531E+03    0.20123E-02   -0.28046E-02   912   0.122E+00    0.299E-01
DAV:   7    -0.155507185564E+03   -0.33403E-03   -0.17829E-02   912   0.874E-01    0.331E-01
DAV:   8    -0.155506002813E+03    0.11828E-02   -0.88612E-03   880   0.629E-01    0.108E-01
DAV:   9    -0.155505952650E+03    0.50163E-04   -0.17091E-03   896   0.256E-01    0.761E-02
DAV:  10    -0.155505926222E+03    0.26429E-04   -0.38866E-04   912   0.137E-01    0.349E-02
DAV:  11    -0.155505921654E+03    0.45675E-05   -0.12183E-04   872   0.685E-02    0.245E-02
DAV:  12    -0.155505920061E+03    0.15926E-05   -0.47493E-05   736   0.491E-02
  33 F= -.15550592E+03 E0= -.15541898E+03  d E =-.515699E-01
 curvature:  -4.83 expect dE=-0.278E+00 dE for cont linesearch -0.443E-01
 ZBRENT: increasing intervall
 opt :   1.3601  next Energy=  -155.587256 (dE=-0.133E+00)
 bond charge predicted
       N       E                     dE             d eps       ncg     rms          rms(c)
DAV:   1    -0.155545009965E+03   -0.39088E-01   -0.30614E+01   544   0.189E+01    0.262E+00
DAV:   2    -0.157414785486E+03   -0.18698E+01   -0.11277E+01  1080   0.233E+01    0.194E+01
DAV:   3    -0.155653747291E+03    0.17610E+01   -0.78753E+00  1072   0.178E+01    0.342E+00
DAV:   4    -0.155609965688E+03    0.43782E-01   -0.97746E-01   936   0.627E+00    0.127E+00
DAV:   5    -0.155605338453E+03    0.46272E-02   -0.17848E-01   896   0.292E+00    0.103E+00
DAV:   6    -0.155595339902E+03    0.99986E-02   -0.12165E-01   896   0.239E+00    0.584E-01
DAV:   7    -0.155597289297E+03   -0.19494E-02   -0.70629E-02   904   0.168E+00    0.708E-01
DAV:   8    -0.155592020206E+03    0.52691E-02   -0.39543E-02   880   0.132E+00    0.221E-01
DAV:   9    -0.155591876387E+03    0.14382E-03   -0.74317E-03   896   0.584E-01    0.170E-01
DAV:  10    -0.155591726583E+03    0.14980E-03   -0.19714E-03   888   0.301E-01    0.785E-02
DAV:  11    -0.155591683004E+03    0.43579E-04   -0.62589E-04   880   0.164E-01    0.499E-02
DAV:  12    -0.155591674288E+03    0.87157E-05   -0.18537E-04   880   0.909E-02    0.156E-02
DAV:  13    -0.155591672595E+03    0.16937E-05   -0.18306E-05   448   0.372E-02
  34 F= -.15559167E+03 E0= -.15550634E+03  d E =-.137322E+00
 curvature:  -8.88 expect dE=-0.892E+00 dE for cont linesearch -0.172E+00
 ZBRENT: increasing intervall
 opt :   2.8438  next Energy=  -155.861239 (dE=-0.407E+00)
 bond charge predicted
       N       E                     dE             d eps       ncg     rms          rms(c)
DAV:   1    -0.155734025073E+03   -0.14235E+00   -0.12592E+02   552   0.406E+01    0.620E+00
DAV:   2    -0.166827307772E+03   -0.11093E+02   -0.68937E+01  1080   0.559E+01    0.433E+01
DAV:   3    -0.155836976961E+03    0.10990E+02   -0.43270E+01  1072   0.383E+01    0.517E+00
DAV:   4    -0.155957798404E+03   -0.12082E+00   -0.44768E+00   920   0.126E+01    0.294E+00
DAV:   5    -0.155941716463E+03    0.16082E-01   -0.92553E-01   928   0.677E+00    0.231E+00
DAV:   6    -0.155901664882E+03    0.40052E-01   -0.56947E-01   872   0.463E+00    0.152E+00
DAV:   7    -0.155908717665E+03   -0.70528E-02   -0.38650E-01   896   0.362E+00    0.169E+00
DAV:   8    -0.155882486889E+03    0.26231E-01   -0.21934E-01   912   0.303E+00    0.618E-01
DAV:   9    -0.155881543495E+03    0.94339E-03   -0.49313E-02   928   0.160E+00    0.411E-01
DAV:  10    -0.155880499186E+03    0.10443E-02   -0.13026E-02   904   0.788E-01    0.215E-01
DAV:  11    -0.155880025721E+03    0.47347E-03   -0.46568E-03   888   0.429E-01    0.114E-01
DAV:  12    -0.155880060690E+03   -0.34969E-04   -0.14395E-03   880   0.269E-01    0.878E-02
DAV:  13    -0.155880011747E+03    0.48943E-04   -0.67822E-04   880   0.189E-01    0.462E-02
DAV:  14    -0.155879991741E+03    0.20006E-04   -0.11445E-04   816   0.815E-02    0.182E-02
DAV:  15    -0.155879990756E+03    0.98460E-06   -0.42970E-05   592   0.425E-02
  35 F= -.15587999E+03 E0= -.15579278E+03  d E =-.425641E+00
 curvature: -13.91 expect dE=-0.460E+01 dE for cont linesearch -0.905E+00
 ZBRENT: increasing intervall
 opt :   5.8112  next Energy=  -156.974507 (dE=-0.152E+01)
 bond charge predicted
       N       E                     dE             d eps       ncg     rms          rms(c)
DAV:   1    -0.156592457971E+03   -0.71247E+00   -0.54428E+02   700   0.969E+01    0.139E+01
DAV:   2    -0.196100310746E+03   -0.39508E+02   -0.31574E+02  1072   0.119E+02    0.688E+01
DAV:   3    -0.156338237824E+03    0.39762E+02   -0.15657E+02  1048   0.725E+01    0.113E+01
DAV:   4    -0.156788042830E+03   -0.44981E+00   -0.22269E+01   904   0.259E+01    0.618E+00
DAV:   5    -0.156761739540E+03    0.26303E-01   -0.43283E+00   920   0.143E+01    0.488E+00
DAV:   6    -0.156614992032E+03    0.14675E+00   -0.19402E+00   920   0.893E+00    0.365E+00
DAV:   7    -0.156606195692E+03    0.87963E-02   -0.13649E+00  1052   0.783E+00    0.319E+00
DAV:   8    -0.156518318327E+03    0.87877E-01   -0.10471E+00   996   0.672E+00    0.199E+00
DAV:   9    -0.156503564485E+03    0.14754E-01   -0.30155E-01   896   0.321E+00    0.862E-01
DAV:  10    -0.156496668804E+03    0.68957E-02   -0.73211E-02   872   0.180E+00    0.449E-01
DAV:  11    -0.156498319879E+03   -0.16511E-02   -0.23868E-02  1016   0.907E-01    0.511E-01
DAV:  12    -0.156496335580E+03    0.19843E-02   -0.22199E-02   868   0.971E-01    0.181E-01
DAV:  13    -0.156496116279E+03    0.21930E-03   -0.25625E-03   880   0.330E-01    0.498E-02
DAV:  14    -0.156496128414E+03   -0.12135E-04   -0.40347E-04   912   0.114E-01    0.462E-02
DAV:  15    -0.156496118285E+03    0.10128E-04   -0.18061E-04   872   0.912E-02    0.245E-02
DAV:  16    -0.156496114340E+03    0.39448E-05   -0.15823E-05   432   0.331E-02
  36 F= -.15649611E+03 E0= -.15643072E+03  d E =-.104176E+01
 curvature: -16.83 expect dE=-0.139E+02 dE for cont linesearch -0.376E-01
 ZBRENT: bracketing found
 ZBRENT: interpolating
 opt :   5.3473  next Energy=  -156.507016 (dE=-0.105E+01)
 bond charge predicted
       N       E                     dE             d eps       ncg     rms          rms(c)
DAV:   1    -0.156508837622E+03   -0.12719E-01   -0.12115E+01   544   0.113E+01    0.207E+00
DAV:   2    -0.157808515722E+03   -0.12997E+01   -0.85183E+00  1072   0.190E+01    0.145E+01
DAV:   3    -0.156527818992E+03    0.12807E+01   -0.61294E+00  1080   0.170E+01    0.267E+00
DAV:   4    -0.156501048858E+03    0.26770E-01   -0.52049E-01   920   0.526E+00    0.886E-01
DAV:   5    -0.156500852673E+03    0.19619E-03   -0.12252E-01   904   0.235E+00    0.777E-01
DAV:   6    -0.156495641978E+03    0.52107E-02   -0.70104E-02   872   0.175E+00    0.519E-01
DAV:   7    -0.156494603833E+03    0.10381E-02   -0.30925E-02   936   0.108E+00    0.383E-01
DAV:   8    -0.156493421044E+03    0.11828E-02   -0.86178E-03   860   0.666E-01    0.150E-01
DAV:   9    -0.156493615329E+03   -0.19429E-03   -0.49083E-03   896   0.420E-01    0.178E-01
DAV:  10    -0.156493399575E+03    0.21575E-03   -0.27832E-03   960   0.325E-01    0.906E-02
DAV:  11    -0.156493322732E+03    0.76843E-04   -0.74107E-04   912   0.199E-01    0.351E-02
DAV:  12    -0.156493321688E+03    0.10438E-05   -0.14200E-04   880   0.756E-02    0.248E-02
DAV:  13    -0.156493316584E+03    0.51042E-05   -0.25916E-05   476   0.435E-02
  37 F= -.15649332E+03 E0= -.15643163E+03  d E =-.103897E+01
 curvature:  -4.88 expect dE=-0.372E+01 dE for cont linesearch -0.175E-01
 ZBRENT: interpolating
 opt :   5.6064  next Energy=  -156.500926 (dE=-0.105E+01)
 bond charge predicted
       N       E                     dE             d eps       ncg     rms          rms(c)
DAV:   1    -0.156504786849E+03   -0.11465E-01   -0.37871E+00   544   0.648E+00    0.119E+00
DAV:   2    -0.156972571442E+03   -0.46778E+00   -0.25104E+00  1080   0.109E+01    0.950E+00
DAV:   3    -0.156516650035E+03    0.45592E+00   -0.20677E+00  1088   0.934E+00    0.160E+00
DAV:   4    -0.156504387086E+03    0.12263E-01   -0.17801E-01   984   0.291E+00    0.558E-01
DAV:   5    -0.156503163837E+03    0.12232E-02   -0.38096E-02   896   0.136E+00    0.410E-01
DAV:   6    -0.156502195424E+03    0.96841E-03   -0.20647E-02   880   0.880E-01    0.343E-01
DAV:   7    -0.156501598023E+03    0.59740E-03   -0.13273E-02   912   0.699E-01    0.248E-01
DAV:   8    -0.156501204949E+03    0.39307E-03   -0.42285E-03   944   0.450E-01    0.116E-01
DAV:   9    -0.156501121580E+03    0.83369E-04   -0.20971E-03   992   0.302E-01    0.745E-02
DAV:  10    -0.156501070808E+03    0.50772E-04   -0.31820E-04   908   0.118E-01    0.189E-02
DAV:  11    -0.156501072798E+03   -0.19893E-05   -0.67072E-05   744   0.488E-02
  38 F= -.15650107E+03 E0= -.15643770E+03  d E =-.104672E+01
 curvature:  -1.35 expect dE=-0.107E+01 dE for cont linesearch -0.129E-06
 trial: gam=13.00308 g(F)=  0.466E+00 g(S)=  0.327E+00 ort =-0.308E-03 (trialstep = 0.689E-02)
 search vector abs. value=  0.168E+03
 bond charge predicted
       N       E                     dE             d eps       ncg     rms          rms(c)
DAV:   1    -0.156505976790E+03   -0.49060E-02   -0.45174E-01   544   0.218E+00    0.357E-01
DAV:   2    -0.156546337818E+03   -0.40361E-01   -0.21870E-01  1072   0.328E+00    0.275E+00
DAV:   3    -0.156507862230E+03    0.38476E-01   -0.18105E-01  1088   0.292E+00    0.593E-01
DAV:   4    -0.156506032841E+03    0.18294E-02   -0.19208E-02  1016   0.982E-01    0.190E-01
DAV:   5    -0.156505874537E+03    0.15830E-03   -0.43160E-03   896   0.448E-01    0.132E-01
DAV:   6    -0.156505763667E+03    0.11087E-03   -0.24294E-03   880   0.309E-01    0.115E-01
DAV:   7    -0.156505686511E+03    0.77155E-04   -0.13470E-03   904   0.227E-01    0.736E-02
DAV:   8    -0.156505654342E+03    0.32169E-04   -0.40598E-04   936   0.140E-01    0.392E-02
DAV:   9    -0.156505641378E+03    0.12964E-04   -0.18329E-04   960   0.911E-02    0.194E-02
DAV:  10    -0.156505640594E+03    0.78466E-06   -0.38884E-05   580   0.460E-02
  39 F= -.15650564E+03 E0= -.15644150E+03  d E =-.456780E-02
 trial-energy change:   -0.004568  1 .order   -0.004549   -0.005438   -0.003661
 step:   0.0211(harm=  0.0211)  dis= 0.01576  next Energy=  -156.509393 (dE=-0.832E-02)
 bond charge predicted
       N       E                     dE             d eps       ncg     rms          rms(c)
DAV:   1    -0.156511051295E+03   -0.54099E-02   -0.19228E+00   544   0.451E+00    0.747E-01
DAV:   2    -0.156685668274E+03   -0.17462E+00   -0.96066E-01  1072   0.685E+00    0.574E+00
DAV:   3    -0.156518582050E+03    0.16709E+00   -0.79047E-01  1080   0.601E+00    0.120E+00
DAV:   4    -0.156511115630E+03    0.74664E-02   -0.82356E-02  1000   0.203E+00    0.398E-01
DAV:   5    -0.156510444519E+03    0.67111E-03   -0.18679E-02   888   0.940E-01    0.278E-01
DAV:   6    -0.156510040593E+03    0.40393E-03   -0.10829E-02   888   0.642E-01    0.253E-01
DAV:   7    -0.156509644899E+03    0.39569E-03   -0.63182E-03   904   0.490E-01    0.158E-01
DAV:   8    -0.156509507172E+03    0.13773E-03   -0.18325E-03   928   0.301E-01    0.856E-02
DAV:   9    -0.156509443072E+03    0.64100E-04   -0.91895E-04   976   0.200E-01    0.410E-02
DAV:  10    -0.156509441395E+03    0.16769E-05   -0.20170E-04   920   0.911E-02    0.286E-02
DAV:  11    -0.156509432186E+03    0.92087E-05   -0.79673E-05   780   0.607E-02
  40 F= -.15650943E+03 E0= -.15644349E+03  d E =-.835939E-02
 curvature:  -2.25 expect dE=-0.180E+01 dE for cont linesearch -0.493E-08
 trial: gam= 0.00855 g(F)=  0.472E+00 g(S)=  0.329E+00 ort = 0.607E-03 (trialstep = 0.973E-02)
 search vector abs. value=  0.814E+00
 bond charge predicted
       N       E                     dE             d eps       ncg     rms          rms(c)
DAV:   1    -0.156517323661E+03   -0.78823E-02   -0.60896E-03   768   0.435E-01    0.128E-01
DAV:   2    -0.156520642109E+03   -0.33184E-02   -0.19281E-02  1088   0.864E-01    0.843E-01
DAV:   3    -0.156517289882E+03    0.33522E-02   -0.15590E-02  1088   0.829E-01    0.123E-01
DAV:   4    -0.156517233443E+03    0.56439E-04   -0.16221E-03   912   0.274E-01    0.484E-02
DAV:   5    -0.156517238673E+03   -0.52306E-05   -0.49367E-04   900   0.139E-01    0.524E-02
DAV:   6    -0.156517210673E+03    0.28001E-04   -0.22042E-04   920   0.972E-02    0.237E-02
DAV:   7    -0.156517207747E+03    0.29261E-05   -0.15593E-05   416   0.355E-02
  41 F= -.15651721E+03 E0= -.15645135E+03  d E =-.777556E-02
 ZBRENT: can't locate minimum, use default step
 trial-energy change:   -0.007776  1 .order   -0.007776   -0.007798   -0.007755
 step:   0.0389(harm=  1.7728)  dis= 0.00185  next Energy=  -157.219676 (dE=-0.710E+00)
 bond charge predicted
       N       E                     dE             d eps       ncg     rms          rms(c)
DAV:   1    -0.156541176343E+03   -0.23966E-01   -0.53929E-02   764   0.130E+00    0.382E-01
DAV:   2    -0.156571384974E+03   -0.30209E-01   -0.18538E-01  1088   0.259E+00    0.253E+00
DAV:   3    -0.156540719743E+03    0.30665E-01   -0.14887E-01  1088   0.251E+00    0.351E-01
DAV:   4    -0.156540344784E+03    0.37496E-03   -0.14257E-02   920   0.806E-01    0.145E-01
DAV:   5    -0.156540376869E+03   -0.32085E-04   -0.42745E-03   900   0.409E-01    0.157E-01
DAV:   6    -0.156540132555E+03    0.24431E-03   -0.19376E-03   944   0.285E-01    0.721E-02
DAV:   7    -0.156540114597E+03    0.17958E-04   -0.23952E-04   908   0.107E-01    0.461E-02
DAV:   8    -0.156540107498E+03    0.70994E-05   -0.85339E-05   792   0.683E-02
  42 F= -.15654011E+03 E0= -.15647450E+03  d E =-.306753E-01
 curvature:  -0.03 expect dE=-0.219E-01 dE for cont linesearch -0.215E-01
 ZBRENT: increasing intervall
 opt :   0.0973  next Energy=  -156.583460 (dE=-0.740E-01)
 bond charge predicted
       N       E                     dE             d eps       ncg     rms          rms(c)
DAV:   1    -0.156588132096E+03   -0.48017E-01   -0.21657E-01   764   0.261E+00    0.748E-01
DAV:   2    -0.156696515593E+03   -0.10838E+00   -0.69232E-01  1088   0.499E+00    0.473E+00
DAV:   3    -0.156586339506E+03    0.11018E+00   -0.52492E-01  1088   0.486E+00    0.694E-01
DAV:   4    -0.156584902936E+03    0.14366E-02   -0.54681E-02   916   0.159E+00    0.286E-01
DAV:   5    -0.156584985958E+03   -0.83022E-04   -0.16600E-02   900   0.815E-01    0.304E-01
DAV:   6    -0.156584066044E+03    0.91991E-03   -0.75127E-03   944   0.565E-01    0.143E-01
DAV:   7    -0.156583986484E+03    0.79560E-04   -0.94962E-04   916   0.210E-01    0.902E-02
DAV:   8    -0.156583962842E+03    0.23642E-04   -0.33215E-04   968   0.132E-01    0.426E-02
DAV:   9    -0.156583964045E+03   -0.12034E-05   -0.32036E-04   904   0.113E-01    0.505E-02
DAV:  10    -0.156583951066E+03    0.12979E-04   -0.11091E-04   856   0.710E-02    0.224E-02
DAV:  11    -0.156583945027E+03    0.60396E-05   -0.15022E-05   356   0.367E-02
  43 F= -.15658395E+03 E0= -.15651884E+03  d E =-.745128E-01
 curvature:  -0.06 expect dE=-0.392E-01 dE for cont linesearch -0.385E-01
 ZBRENT: increasing intervall
 opt :   0.2141  next Energy=  -156.663400 (dE=-0.154E+00)
 bond charge predicted
       N       E                     dE             d eps       ncg     rms          rms(c)
DAV:   1    -0.156680699856E+03   -0.96749E-01   -0.86412E-01   764   0.520E+00    0.151E+00
DAV:   2    -0.157114871313E+03   -0.43417E+00   -0.27787E+00  1088   0.102E+01    0.920E+00
DAV:   3    -0.156670971210E+03    0.44390E+00   -0.18797E+00  1088   0.100E+01    0.132E+00
DAV:   4    -0.156667254213E+03    0.37170E-02   -0.22014E-01   908   0.319E+00    0.556E-01
DAV:   5    -0.156667862669E+03   -0.60846E-03   -0.65205E-02   900   0.160E+00    0.611E-01
DAV:   6    -0.156664181624E+03    0.36810E-02   -0.30138E-02   920   0.112E+00    0.284E-01
DAV:   7    -0.156663861368E+03    0.32026E-03   -0.38730E-03   908   0.422E-01    0.179E-01
DAV:   8    -0.156663775721E+03    0.85647E-04   -0.14719E-03   984   0.275E-01    0.898E-02
DAV:   9    -0.156663782107E+03   -0.63866E-05   -0.12416E-03   904   0.224E-01    0.107E-01
DAV:  10    -0.156663723374E+03    0.58734E-04   -0.45016E-04  1024   0.145E-01    0.423E-02
DAV:  11    -0.156663706778E+03    0.16596E-04   -0.11775E-04   820   0.728E-02    0.180E-02
DAV:  12    -0.156663704167E+03    0.26103E-05   -0.99060E-06   356   0.235E-02
  44 F= -.15666370E+03 E0= -.15659942E+03  d E =-.154272E+00
 curvature:  -0.12 expect dE=-0.630E-01 dE for cont linesearch -0.608E-01
 ZBRENT: increasing intervall
 opt :   0.4477  next Energy=  -156.790653 (dE=-0.281E+00)
 bond charge predicted
       N       E                     dE             d eps       ncg     rms          rms(c)
DAV:   1    -0.156857844850E+03   -0.19414E+00   -0.34349E+00   772   0.104E+01    0.302E+00
DAV:   2    -0.158427144276E+03   -0.15693E+01   -0.10805E+01  1088   0.202E+01    0.163E+01
DAV:   3    -0.156798831192E+03    0.16283E+01   -0.70138E+00  1088   0.202E+01    0.226E+00
DAV:   4    -0.156804344047E+03   -0.55129E-02   -0.83172E-01   904   0.623E+00    0.108E+00
DAV:   5    -0.156805415890E+03   -0.10718E-02   -0.23561E-01   892   0.310E+00    0.115E+00
DAV:   6    -0.156792958743E+03    0.12457E-01   -0.11091E-01   936   0.214E+00    0.582E-01
DAV:   7    -0.156791528317E+03    0.14304E-02   -0.15588E-02   912   0.857E-01    0.361E-01
DAV:   8    -0.156791232915E+03    0.29540E-03   -0.73947E-03  1064   0.615E-01    0.227E-01
DAV:   9    -0.156791198123E+03    0.34791E-04   -0.41339E-03   876   0.416E-01    0.230E-01
DAV:  10    -0.156790902628E+03    0.29550E-03   -0.16416E-03  1064   0.287E-01    0.548E-02
DAV:  11    -0.156790880477E+03    0.22151E-04   -0.30776E-04   876   0.119E-01    0.313E-02
DAV:  12    -0.156790874828E+03    0.56491E-05   -0.25851E-05   440   0.398E-02
  45 F= -.15679087E+03 E0= -.15672755E+03  d E =-.281443E+00
 curvature:  -0.26 expect dE=-0.753E-01 dE for cont linesearch -0.620E-01
 ZBRENT: increasing intervall
 opt :   0.9148  next Energy=  -156.908582 (dE=-0.399E+00)
 bond charge predicted
       N       E                     dE             d eps       ncg     rms          rms(c)
DAV:   1    -0.157166626572E+03   -0.37575E+00   -0.13599E+01   748   0.206E+01    0.601E+00
DAV:   2    -0.162381466491E+03   -0.52148E+01   -0.37288E+01  1088   0.402E+01    0.273E+01
DAV:   3    -0.156842648768E+03    0.55388E+01   -0.24174E+01  1080   0.389E+01    0.352E+00
DAV:   4    -0.156981823112E+03   -0.13917E+00   -0.33013E+00   892   0.119E+01    0.250E+00
DAV:   5    -0.156954355874E+03    0.27467E-01   -0.91600E-01   912   0.593E+00    0.200E+00
DAV:   6    -0.156918885669E+03    0.35470E-01   -0.39102E-01   928   0.399E+00    0.131E+00
DAV:   7    -0.156913779746E+03    0.51059E-02   -0.68368E-02   968   0.190E+00    0.700E-01
DAV:   8    -0.156912252848E+03    0.15269E-02   -0.45635E-02  1072   0.145E+00    0.635E-01
DAV:   9    -0.156911229286E+03    0.10236E-02   -0.11953E-02   872   0.735E-01    0.469E-01
DAV:  10    -0.156910088545E+03    0.11407E-02   -0.61180E-03  1088   0.520E-01    0.100E-01
DAV:  11    -0.156910106440E+03   -0.17895E-04   -0.15812E-03   876   0.274E-01    0.109E-01
DAV:  12    -0.156910032752E+03    0.73688E-04   -0.41139E-04   884   0.154E-01    0.686E-02
DAV:  13    -0.156910024634E+03    0.81179E-05   -0.14676E-04   912   0.678E-02    0.465E-02
DAV:  14    -0.156910014385E+03    0.10249E-04   -0.47266E-05   660   0.529E-02    0.212E-02
DAV:  15    -0.156910010097E+03    0.42880E-05   -0.19082E-05   412   0.265E-02
  46 F= -.15691001E+03 E0= -.15684642E+03  d E =-.400578E+00
 curvature:  -0.49 expect dE=-0.101E+00 dE for cont linesearch -0.206E-02
 ZBRENT: extrapolating
 opt :   0.9860  next Energy=  -156.912097 (dE=-0.403E+00)
 bond charge predicted
       N       E                     dE             d eps       ncg     rms          rms(c)
DAV:   1    -0.156918026198E+03   -0.80118E-02   -0.32295E-01   788   0.322E+00    0.925E-01
DAV:   2    -0.157069391181E+03   -0.15136E+00   -0.90654E-01  1080   0.621E+00    0.532E+00
DAV:   3    -0.156914912615E+03    0.15448E+00   -0.72126E-01  1088   0.607E+00    0.806E-01
DAV:   4    -0.156912972397E+03    0.19402E-02   -0.74475E-02   872   0.191E+00    0.313E-01
DAV:   5    -0.156913291818E+03   -0.31942E-03   -0.20271E-02   904   0.989E-01    0.354E-01
DAV:   6    -0.156911999377E+03    0.12924E-02   -0.95574E-03   904   0.676E-01    0.161E-01
DAV:   7    -0.156911903227E+03    0.96150E-04   -0.12627E-03   920   0.238E-01    0.976E-02
DAV:   8    -0.156911880006E+03    0.23221E-04   -0.48897E-04   952   0.158E-01    0.543E-02
DAV:   9    -0.156911870871E+03    0.91349E-05   -0.35902E-04   872   0.125E-01    0.520E-02
DAV:  10    -0.156911852527E+03    0.18344E-04   -0.76353E-05   740   0.699E-02    0.141E-02
DAV:  11    -0.156911851987E+03    0.53976E-06   -0.10665E-05   332   0.266E-02
  47 F= -.15691185E+03 E0= -.15684802E+03  d E =-.402420E+00
 curvature:  -0.49 expect dE=-0.122E+00 dE for cont linesearch -0.161E-04
 trial: gam= 0.31503 g(F)=  0.475E-01 g(S)=  0.199E+00 ort =-0.515E-02 (trialstep = 0.205E+00)
 search vector abs. value=  0.324E+00
 bond charge predicted
       N       E                     dE             d eps       ncg     rms          rms(c)
DAV:   1    -0.156989954934E+03   -0.78102E-01   -0.10071E+00   680   0.577E+00    0.235E+00
DAV:   2    -0.158701352034E+03   -0.17114E+01   -0.96293E+00  1080   0.214E+01    0.175E+01
DAV:   3    -0.156964571722E+03    0.17368E+01   -0.70284E+00  1080   0.169E+01    0.209E+00
DAV:   4    -0.156956147204E+03    0.84245E-02   -0.57487E-01   912   0.459E+00    0.591E-01
DAV:   5    -0.156958648246E+03   -0.25010E-02   -0.78132E-02   896   0.185E+00    0.555E-01
DAV:   6    -0.156955444411E+03    0.32038E-02   -0.33703E-02   872   0.122E+00    0.325E-01
DAV:   7    -0.156955146585E+03    0.29783E-03   -0.90758E-03   904   0.677E-01    0.266E-01
DAV:   8    -0.156954770862E+03    0.37572E-03   -0.30247E-03   932   0.393E-01    0.133E-01
DAV:   9    -0.156954704736E+03    0.66125E-04   -0.13622E-03   880   0.257E-01    0.806E-02
DAV:  10    -0.156954702328E+03    0.24082E-05   -0.86886E-04   912   0.191E-01    0.626E-02
DAV:  11    -0.156954660136E+03    0.42192E-04   -0.33839E-04   896   0.124E-01    0.199E-02
DAV:  12    -0.156954660659E+03   -0.52361E-06   -0.30738E-05   532   0.427E-02
  48 F= -.15695466E+03 E0= -.15688852E+03  d E =-.428087E-01
 trial-energy change:   -0.042809  1 .order   -0.043234   -0.050152   -0.036316
 step:   0.7430(harm=  0.7430)  dis= 0.02352  next Energy=  -157.002748 (dE=-0.909E-01)
 bond charge predicted
       N       E                     dE             d eps       ncg     rms          rms(c)
DAV:   1    -0.157239549723E+03   -0.28489E+00   -0.69483E+00   680   0.152E+01    0.604E+00
DAV:   2    -0.167205803590E+03   -0.99663E+01   -0.65448E+01  1064   0.552E+01    0.389E+01
DAV:   3    -0.156844309547E+03    0.10361E+02   -0.39420E+01  1048   0.363E+01    0.390E+00
DAV:   4    -0.157025472265E+03   -0.18116E+00   -0.39769E+00   912   0.108E+01    0.195E+00
DAV:   5    -0.157026889946E+03   -0.14177E-02   -0.52908E-01   904   0.446E+00    0.141E+00
DAV:   6    -0.157009803756E+03    0.17086E-01   -0.21174E-01   904   0.306E+00    0.854E-01
DAV:   7    -0.157007704829E+03    0.20989E-02   -0.59274E-02   888   0.187E+00    0.713E-01
DAV:   8    -0.157005276495E+03    0.24283E-02   -0.26076E-02   932   0.112E+00    0.439E-01
DAV:   9    -0.157004388789E+03    0.88771E-03   -0.15649E-02   904   0.852E-01    0.279E-01
DAV:  10    -0.157004513106E+03   -0.12432E-03   -0.95082E-03   952   0.584E-01    0.241E-01
DAV:  11    -0.157003915180E+03    0.59793E-03   -0.40137E-03   880   0.434E-01    0.712E-02
DAV:  12    -0.157003961526E+03   -0.46346E-04   -0.79717E-04   896   0.173E-01    0.635E-02
DAV:  13    -0.157003943116E+03    0.18410E-04   -0.34175E-04   880   0.123E-01    0.361E-02
DAV:  14    -0.157003931186E+03    0.11931E-04   -0.79364E-05   792   0.641E-02    0.111E-02
DAV:  15    -0.157003932636E+03   -0.14500E-05   -0.97827E-06   332   0.232E-02
  49 F= -.15700393E+03 E0= -.15693258E+03  d E =-.920806E-01
 curvature:  -0.49 expect dE=-0.642E-02 dE for cont linesearch -0.187E-03
 ZBRENT: extrapolating
 opt :   0.7789  next Energy=  -157.004132 (dE=-0.923E-01)
 bond charge predicted
       N       E                     dE             d eps       ncg     rms          rms(c)
DAV:   1    -0.157005166649E+03   -0.12355E-02   -0.30427E-02   660   0.990E-01    0.402E-01
DAV:   2    -0.157056622844E+03   -0.51456E-01   -0.26725E-01  1080   0.364E+00    0.323E+00
DAV:   3    -0.157004840449E+03    0.51782E-01   -0.22201E-01  1080   0.322E+00    0.400E-01
DAV:   4    -0.157004209405E+03    0.63104E-03   -0.17098E-02   880   0.818E-01    0.115E-01
DAV:   5    -0.157004273965E+03   -0.64560E-04   -0.27586E-03   896   0.349E-01    0.110E-01
DAV:   6    -0.157004154226E+03    0.11974E-03   -0.11149E-03   888   0.216E-01    0.585E-02
DAV:   7    -0.157004137067E+03    0.17159E-04   -0.29114E-04   904   0.119E-01    0.427E-02
DAV:   8    -0.157004126908E+03    0.10160E-04   -0.72241E-05   764   0.591E-02    0.169E-02
DAV:   9    -0.157004126761E+03    0.14652E-06   -0.31954E-05   484   0.454E-02
  50 F= -.15700413E+03 E0= -.15693250E+03  d E =-.922748E-01
 curvature:  -0.52 expect dE=-0.758E-02 dE for cont linesearch -0.103E-05
 trial: gam= 0.08904 g(F)=  0.105E-01 g(S)=  0.396E-02 ort =-0.799E-03 (trialstep = 0.320E+00)
 search vector abs. value=  0.169E-01
 bond charge predicted
       N       E                     dE             d eps       ncg     rms          rms(c)
DAV:   1    -0.157009995167E+03   -0.58683E-02   -0.95381E-02   588   0.122E+00    0.325E-01
DAV:   2    -0.157036207032E+03   -0.26212E-01   -0.18035E-01  1080   0.312E+00    0.191E+00
DAV:   3    -0.157010685567E+03    0.25521E-01   -0.14324E-01  1080   0.274E+00    0.628E-01
DAV:   4    -0.157008695821E+03    0.19897E-02   -0.17462E-02  1008   0.902E-01    0.140E-01
DAV:   5    -0.157008769833E+03   -0.74012E-04   -0.35998E-03   940   0.400E-01    0.150E-01
DAV:   6    -0.157008589245E+03    0.18059E-03   -0.20071E-03  1016   0.316E-01    0.890E-02
DAV:   7    -0.157008533128E+03    0.56117E-04   -0.78912E-04   872   0.168E-01    0.491E-02
DAV:   8    -0.157008537175E+03   -0.40474E-05   -0.26761E-04   896   0.983E-02    0.443E-02
DAV:   9    -0.157008519076E+03    0.18099E-04   -0.12636E-04   856   0.760E-02    0.122E-02
DAV:  10    -0.157008520481E+03   -0.14045E-05   -0.26222E-05   488   0.384E-02
  51 F= -.15700852E+03 E0= -.15693650E+03  d E =-.439372E-02
 ZBRENT: can't locate minimum, use default step
 trial-energy change:   -0.004394  1 .order   -0.004363   -0.004596   -0.004131
 step:   1.2791(harm=  3.1584)  dis= 0.00853  next Energy=  -157.026825 (dE=-0.227E-01)
 bond charge predicted
       N       E                     dE             d eps       ncg     rms          rms(c)
DAV:   1    -0.157032232085E+03   -0.23713E-01   -0.85854E-01   580   0.363E+00    0.976E-01
DAV:   2    -0.157266533829E+03   -0.23430E+00   -0.16562E+00  1056   0.936E+00    0.564E+00
DAV:   3    -0.157033208983E+03    0.23332E+00   -0.13186E+00  1064   0.831E+00    0.167E+00
DAV:   4    -0.157020651555E+03    0.12557E-01   -0.14924E-01  1016   0.260E+00    0.468E-01
DAV:   5    -0.157020718289E+03   -0.66733E-04   -0.30529E-02   908   0.117E+00    0.397E-01
DAV:   6    -0.157019496295E+03    0.12220E-02   -0.16544E-02   976   0.930E-01    0.279E-01
DAV:   7    -0.157018908233E+03    0.58806E-03   -0.74525E-03   880   0.531E-01    0.153E-01
DAV:   8    -0.157018976323E+03   -0.68090E-04   -0.30437E-03   888   0.323E-01    0.152E-01
DAV:   9    -0.157018764909E+03    0.21141E-03   -0.14463E-03   904   0.260E-01    0.430E-02
DAV:  10    -0.157018782373E+03   -0.17464E-04   -0.41145E-04   888   0.133E-01    0.405E-02
DAV:  11    -0.157018761919E+03    0.20455E-04   -0.16383E-04   872   0.933E-02    0.105E-02
DAV:  12    -0.157018761344E+03    0.57517E-06   -0.16390E-05   404   0.311E-02
  52 F= -.15701876E+03 E0= -.15694566E+03  d E =-.146346E-01
 curvature:  -1.04 expect dE=-0.592E-02 dE for cont linesearch -0.419E-02
 ZBRENT: increasing intervall
 opt :   3.1977  next Energy=  -157.025610 (dE=-0.215E-01)
 bond charge predicted
       N       E                     dE             d eps       ncg     rms          rms(c)
DAV:   1    -0.157080211203E+03   -0.61449E-01   -0.34517E+00   588   0.727E+00    0.196E+00
DAV:   2    -0.158011208247E+03   -0.93100E+00   -0.68968E+00  1056   0.186E+01    0.112E+01
DAV:   3    -0.157049712435E+03    0.96150E+00   -0.56420E+00  1032   0.168E+01    0.246E+00
DAV:   4    -0.157035977293E+03    0.13735E-01   -0.52287E-01   976   0.485E+00    0.116E+00
DAV:   5    -0.157032431921E+03    0.35454E-02   -0.11689E-01   912   0.229E+00    0.727E-01
DAV:   6    -0.157028719421E+03    0.37125E-02   -0.60671E-02   920   0.178E+00    0.534E-01
DAV:   7    -0.157026270115E+03    0.24493E-02   -0.29843E-02   876   0.114E+00    0.312E-01
DAV:   8    -0.157026775864E+03   -0.50575E-03   -0.14176E-02   888   0.688E-01    0.353E-01
DAV:   9    -0.157025782912E+03    0.99295E-03   -0.74088E-03   952   0.584E-01    0.124E-01
DAV:  10    -0.157025766806E+03    0.16105E-04   -0.19162E-03   912   0.305E-01    0.766E-02
DAV:  11    -0.157025700309E+03    0.66497E-04   -0.53742E-04   872   0.166E-01    0.207E-02
DAV:  12    -0.157025700444E+03   -0.13490E-06   -0.95930E-05   808   0.620E-02
  53 F= -.15702570E+03 E0= -.15695091E+03  d E =-.215737E-01
 curvature:  -1.70 expect dE=-0.123E-01 dE for cont linesearch -0.129E-03
 trial: gam= 0.60326 g(F)=  0.254E-02 g(S)=  0.471E-02 ort =-0.113E-02 (trialstep = 0.895E+00)
 search vector abs. value=  0.120E-01
 bond charge predicted
       N       E                     dE             d eps       ncg     rms          rms(c)
DAV:   1    -0.157053560472E+03   -0.27860E-01   -0.76078E-01   712   0.539E+00    0.199E+00
DAV:   2    -0.158153837657E+03   -0.11003E+01   -0.66859E+00  1088   0.168E+01    0.142E+01
DAV:   3    -0.157033293759E+03    0.11205E+01   -0.51850E+00  1088   0.141E+01    0.157E+00
DAV:   4    -0.157030135560E+03    0.31582E-02   -0.37472E-01   904   0.384E+00    0.654E-01
DAV:   5    -0.157032067612E+03   -0.19321E-02   -0.75854E-02   912   0.172E+00    0.632E-01
[...]
DAV:   9    -0.157030241038E+03    0.18640E-05   -0.40120E-05   616   0.459E-02
  58 F= -.15703024E+03 E0= -.15695510E+03  d E =-.684856E-03
 trial-energy change:   -0.000685  1 .order   -0.000697   -0.000881   -0.000513
 step:   1.6791(harm=  1.6791)  dis= 0.00620  next Energy=  -157.030611 (dE=-0.105E-02)
 bond charge predicted
       N       E                     dE             d eps       ncg     rms          rms(c)
DAV:   1    -0.157031646241E+03   -0.14033E-02   -0.15456E-01   568   0.156E+00    0.424E-01
DAV:   2    -0.157081676464E+03   -0.50030E-01   -0.29900E-01  1088   0.368E+00    0.312E+00
DAV:   3    -0.157031134597E+03    0.50542E-01   -0.24490E-01  1088   0.323E+00    0.338E-01
DAV:   4    -0.157030978551E+03    0.15605E-03   -0.15213E-02   824   0.824E-01    0.146E-01
DAV:   5    -0.157031021582E+03   -0.43031E-04   -0.31965E-03   936   0.360E-01    0.160E-01
DAV:   6    -0.157030773736E+03    0.24785E-03   -0.19769E-03  1000   0.302E-01    0.745E-02
DAV:   7    -0.157030770775E+03    0.29618E-05   -0.49331E-04   904   0.154E-01    0.622E-02
DAV:   8    -0.157030734335E+03    0.36439E-04   -0.29990E-04   872   0.117E-01    0.273E-02
DAV:   9    -0.157030732782E+03    0.15535E-05   -0.95507E-05   848   0.628E-02
  59 F= -.15703073E+03 E0= -.15695556E+03  d E =-.117660E-02
 curvature:  -1.77 expect dE=-0.343E-02 dE for cont linesearch -0.117E-04
 trial: gam= 1.39108 g(F)=  0.548E-03 g(S)=  0.139E-02 ort = 0.132E-03 (trialstep = 0.319E+00)
 search vector abs. value=  0.743E-02
 bond charge predicted
       N       E                     dE             d eps       ncg     rms          rms(c)
DAV:   1    -0.157031358993E+03   -0.62466E-03   -0.44613E-02   556   0.826E-01    0.162E-01
DAV:   2    -0.157035791698E+03   -0.44327E-02   -0.26916E-02  1080   0.118E+00    0.916E-01
DAV:   3    -0.157031369549E+03    0.44221E-02   -0.20189E-02  1088   0.102E+00    0.132E-01
DAV:   4    -0.157031332002E+03    0.37547E-04   -0.21976E-03   912   0.330E-01    0.701E-02
DAV:   5    -0.157031352746E+03   -0.20744E-04   -0.91397E-04   908   0.201E-01    0.912E-02
DAV:   6    -0.157031281171E+03    0.71575E-04   -0.51191E-04   904   0.134E-01    0.398E-02
DAV:   7    -0.157031277063E+03    0.41081E-05   -0.14024E-04   880   0.793E-02    0.285E-02
DAV:   8    -0.157031269942E+03    0.71208E-05   -0.34259E-05   560   0.485E-02
  60 F= -.15703127E+03 E0= -.15695622E+03  d E =-.537160E-03
 trial-energy change:   -0.000537  1 .order   -0.000561   -0.000679   -0.000443
 step:   0.9219(harm=  0.9219)  dis= 0.00586  next Energy=  -157.031712 (dE=-0.979E-03)
 bond charge predicted
       N       E                     dE             d eps       ncg     rms          rms(c)
DAV:   1    -0.157032165737E+03   -0.88867E-03   -0.15927E-01   556   0.157E+00    0.300E-01
DAV:   2    -0.157046146262E+03   -0.13981E-01   -0.87576E-02  1064   0.217E+00    0.161E+00
DAV:   3    -0.157032260919E+03    0.13885E-01   -0.66329E-02  1088   0.186E+00    0.262E-01
DAV:   4    -0.157032046001E+03    0.21492E-03   -0.73758E-03   904   0.617E-01    0.125E-01
DAV:   5    -0.157032119843E+03   -0.73842E-04   -0.31108E-03   900   0.376E-01    0.166E-01
DAV:   6    -0.157031885662E+03    0.23418E-03   -0.19817E-03   912   0.251E-01    0.764E-02
DAV:   7    -0.157031868000E+03    0.17662E-04   -0.55441E-04   904   0.154E-01    0.556E-02
DAV:   8    -0.157031849492E+03    0.18508E-04   -0.19960E-04   904   0.934E-02    0.296E-02
DAV:   9    -0.157031842383E+03    0.71091E-05   -0.88402E-05   760   0.647E-02
  61 F= -.15703184E+03 E0= -.15695717E+03  d E =-.110960E-02
 curvature:  -1.61 expect dE=-0.127E-02 dE for cont linesearch -0.194E-04
 ZBRENT: extrapolating
 opt :   1.0873  next Energy=  -157.031867 (dE=-0.113E-02)
 bond charge predicted
       N       E                     dE             d eps       ncg     rms          rms(c)
DAV:   1    -0.157031913346E+03   -0.63854E-04   -0.12083E-02   560   0.435E-01    0.798E-02
DAV:   2    -0.157032797742E+03   -0.88440E-03   -0.56504E-03  1056   0.561E-01    0.403E-01
DAV:   3    -0.157031929660E+03    0.86808E-03   -0.42540E-03  1072   0.472E-01    0.750E-02
DAV:   4    -0.157031910746E+03    0.18914E-04   -0.52901E-04   928   0.164E-01    0.360E-02
DAV:   5    -0.157031914113E+03   -0.33673E-05   -0.22335E-04   916   0.105E-01    0.444E-02
DAV:   6    -0.157031899051E+03    0.15062E-04   -0.14681E-04   872   0.710E-02    0.236E-02
DAV:   7    -0.157031894309E+03    0.47425E-05   -0.26794E-05   436   0.462E-02
  62 F= -.15703189E+03 E0= -.15695730E+03  d E =-.116153E-02
 curvature:  -2.05 expect dE=-0.131E-02 dE for cont linesearch -0.187E-04
 ZBRENT: increasing intervall
 opt :   1.4179  next Energy=  -157.031967 (dE=-0.123E-02)
 bond charge predicted
       N       E                     dE             d eps       ncg     rms          rms(c)
DAV:   1    -0.157031976040E+03   -0.76989E-04   -0.47940E-02   556   0.861E-01    0.165E-01
DAV:   2    -0.157036283974E+03   -0.43079E-02   -0.27061E-02  1080   0.119E+00    0.893E-01
DAV:   3    -0.157032001237E+03    0.42827E-02   -0.20158E-02  1088   0.102E+00    0.142E-01
DAV:   4    -0.157031939046E+03    0.62191E-04   -0.22488E-03   912   0.339E-01    0.688E-02
DAV:   5    -0.157031964721E+03   -0.25675E-04   -0.93218E-04   900   0.207E-01    0.935E-02
DAV:   6    -0.157031889152E+03    0.75569E-04   -0.54250E-04   912   0.139E-01    0.416E-02
DAV:   7    -0.157031884329E+03    0.48235E-05   -0.15411E-04   888   0.835E-02    0.298E-02
DAV:   8    -0.157031877462E+03    0.68672E-05   -0.44533E-05   628   0.502E-02
  63 F= -.15703188E+03 E0= -.15695755E+03  d E =-.114468E-02
 curvature:  -8.03 expect dE=-0.134E-01 dE for cont linesearch -0.166E-03
 ZBRENT: bracketing found
 ZBRENT: interpolating
 opt :   1.2192  next Energy=  -157.031911 (dE=-0.118E-02)
 bond charge predicted
       N       E                     dE             d eps       ncg     rms          rms(c)
DAV:   1    -0.157031959207E+03   -0.74878E-04   -0.17386E-02   556   0.520E-01    0.105E-01
DAV:   2    -0.157033883576E+03   -0.19244E-02   -0.11842E-02  1080   0.786E-01    0.606E-01
DAV:   3    -0.157031963005E+03    0.19206E-02   -0.89637E-03  1088   0.671E-01    0.912E-02
DAV:   4    -0.157031933028E+03    0.29977E-04   -0.95675E-04   912   0.222E-01    0.422E-02
DAV:   5    -0.157031942477E+03   -0.94488E-05   -0.36130E-04   900   0.130E-01    0.558E-02
DAV:   6    -0.157031914424E+03    0.28053E-04   -0.19178E-04   888   0.833E-02    0.240E-02
DAV:   7    -0.157031909949E+03    0.44750E-05   -0.28859E-05   484   0.456E-02
  64 F= -.15703191E+03 E0= -.15695744E+03  d E =-.117717E-02
 curvature:  -0.83 expect dE=-0.853E-03 dE for cont linesearch -0.129E-05
 trial: gam= 0.82910 g(F)=  0.258E-03 g(S)=  0.769E-03 ort =-0.107E-03 (trialstep = 0.499E+00)
 search vector abs. value=  0.596E-02
 bond charge predicted
       N       E                     dE             d eps       ncg     rms          rms(c)
DAV:   1    -0.157032601782E+03   -0.68736E-03   -0.82730E-02   544   0.100E+00    0.242E-01
DAV:   2    -0.157048898690E+03   -0.16297E-01   -0.10100E-01  1088   0.223E+00    0.174E+00
DAV:   3    -0.157032531100E+03    0.16368E-01   -0.72446E-02  1088   0.192E+00    0.249E-01
DAV:   4    -0.157032378429E+03    0.15267E-03   -0.63735E-03   888   0.530E-01    0.957E-02
DAV:   5    -0.157032397579E+03   -0.19150E-04   -0.14361E-03   912   0.260E-01    0.951E-02
DAV:   6    -0.157032291963E+03    0.10562E-03   -0.88180E-04   936   0.201E-01    0.425E-02
DAV:   7    -0.157032287982E+03    0.39816E-05   -0.34139E-04   896   0.127E-01    0.380E-02
DAV:   8    -0.157032273322E+03    0.14660E-04   -0.11949E-04   844   0.744E-02    0.156E-02
DAV:   9    -0.157032270546E+03    0.27758E-05   -0.17360E-05   384   0.339E-02
  65 F= -.15703227E+03 E0= -.15695786E+03  d E =-.360598E-03
 trial-energy change:   -0.000361  1 .order   -0.000370   -0.000468   -0.000272
 step:   1.1939(harm=  1.1939)  dis= 0.00761  next Energy=  -157.032470 (dE=-0.560E-03)
 bond charge predicted
       N       E                     dE             d eps       ncg     rms          rms(c)
DAV:   1    -0.157033092669E+03   -0.81935E-03   -0.16014E-01   544   0.139E+00    0.336E-01
DAV:   2    -0.157063770989E+03   -0.30678E-01   -0.19358E-01  1088   0.308E+00    0.238E+00
DAV:   3    -0.157032966103E+03    0.30805E-01   -0.13973E-01  1088   0.264E+00    0.349E-01
DAV:   4    -0.157032648334E+03    0.31777E-03   -0.12260E-02   888   0.736E-01    0.135E-01
DAV:   5    -0.157032691250E+03   -0.42917E-04   -0.28472E-03   912   0.362E-01    0.135E-01
DAV:   6    -0.157032478919E+03    0.21233E-03   -0.17600E-03   936   0.283E-01    0.593E-02
DAV:   7    -0.157032473363E+03    0.55564E-05   -0.69247E-04   896   0.180E-01    0.546E-02
DAV:   8    -0.157032442844E+03    0.30519E-04   -0.24338E-04   868   0.104E-01    0.226E-02
DAV:   9    -0.157032438734E+03    0.41098E-05   -0.44860E-05   608   0.478E-02
  66 F= -.15703244E+03 E0= -.15695825E+03  d E =-.528785E-03
 curvature:  -3.79 expect dE=-0.201E-02 dE for cont linesearch -0.254E-06
 trial: gam= 0.32659 g(F)=  0.448E-03 g(S)=  0.812E-04 ort =-0.200E-04 (trialstep = 0.638E+00)
 search vector abs. value=  0.115E-02
 bond charge predicted
       N       E                     dE             d eps       ncg     rms          rms(c)
DAV:   1    -0.157032875416E+03   -0.43257E-03   -0.25381E-02   544   0.591E-01    0.111E-01
DAV:   2    -0.157034888742E+03   -0.20133E-02   -0.17706E-02   952   0.935E-01    0.453E-01
DAV:   3    -0.157032720834E+03    0.21679E-02   -0.12955E-02   976   0.759E-01    0.699E-02
DAV:   4    -0.157032770380E+03   -0.49546E-04   -0.10547E-03   992   0.207E-01    0.905E-02
DAV:   5    -0.157032769131E+03    0.12494E-05   -0.58431E-04  1080   0.178E-01    0.894E-02
DAV:   6    -0.157032726329E+03    0.42802E-04   -0.37399E-04  1056   0.134E-01    0.380E-02
DAV:   7    -0.157032717599E+03    0.87300E-05   -0.16726E-04   872   0.860E-02    0.292E-02
DAV:   8    -0.157032716113E+03    0.14857E-05   -0.54235E-05   656   0.501E-02
  67 F= -.15703272E+03 E0= -.15695861E+03  d E =-.277379E-03
 trial-energy change:   -0.000277  1 .order   -0.000277   -0.000334   -0.000221
 step:   1.8808(harm=  1.8808)  dis= 0.00322  next Energy=  -157.032931 (dE=-0.492E-03)
 bond charge predicted
       N       E                     dE             d eps       ncg     rms          rms(c)
DAV:   1    -0.157033599930E+03   -0.88233E-03   -0.96606E-02   548   0.115E+00    0.215E-01
DAV:   2    -0.157040925417E+03   -0.73255E-02   -0.67930E-02   952   0.181E+00    0.863E-01
DAV:   3    -0.157033023144E+03    0.79023E-02   -0.50394E-02   980   0.146E+00    0.139E-01
DAV:   4    -0.157033174664E+03   -0.15152E-03   -0.39400E-03   976   0.396E-01    0.162E-01
DAV:   5    -0.157033187303E+03   -0.12639E-04   -0.21608E-03  1080   0.347E-01    0.177E-01
DAV:   6    -0.157033035442E+03    0.15186E-03   -0.13844E-03  1080   0.263E-01    0.817E-02
DAV:   7    -0.157032998247E+03    0.37195E-04   -0.68820E-04   896   0.175E-01    0.595E-02
DAV:   8    -0.157032997007E+03    0.12406E-05   -0.28129E-04   904   0.107E-01    0.434E-02
DAV:   9    -0.157032979488E+03    0.17519E-04   -0.16124E-04   888   0.840E-02    0.205E-02
DAV:  10    -0.157032978228E+03    0.12598E-05   -0.37014E-05   536   0.430E-02
  68 F= -.15703298E+03 E0= -.15695899E+03  d E =-.539494E-03
 curvature:  -2.07 expect dE=-0.267E-03 dE for cont linesearch -0.107E-04
 ZBRENT: extrapolating
 opt :   2.2370  next Energy=  -157.032992 (dE=-0.553E-03)
 bond charge predicted
       N       E                     dE             d eps       ncg     rms          rms(c)
DAV:   1    -0.157033039392E+03   -0.59904E-04   -0.79512E-03   548   0.330E-01    0.627E-02
DAV:   2    -0.157033654490E+03   -0.61510E-03   -0.53796E-03   952   0.532E-01    0.248E-01
DAV:   3    -0.157032990915E+03    0.66357E-03   -0.39216E-03  1004   0.427E-01    0.423E-02
DAV:   4    -0.157033001716E+03   -0.10801E-04   -0.33158E-04   992   0.114E-01    0.470E-02
DAV:   5    -0.157033003456E+03   -0.17400E-05   -0.17453E-04  1032   0.994E-02    0.501E-02
DAV:   6    -0.157032990661E+03    0.12795E-04   -0.11009E-04   848   0.773E-02    0.233E-02
DAV:   7    -0.157032986818E+03    0.38432E-05   -0.56828E-05   724   0.531E-02
  69 F= -.15703299E+03 E0= -.15695905E+03  d E =-.548084E-03
 curvature:  -2.66 expect dE=-0.524E-03 dE for cont linesearch -0.126E-05
 trial: gam= 0.37885 g(F)=  0.139E-03 g(S)=  0.579E-04 ort =-0.233E-04 (trialstep = 0.958E+00)
 search vector abs. value=  0.344E-03
 bond charge predicted
       N       E                     dE             d eps       ncg     rms          rms(c)
DAV:   1    -0.157033638465E+03   -0.64780E-03   -0.20903E-02   652   0.720E-01    0.263E-01
DAV:   2    -0.157053468422E+03   -0.19830E-01   -0.11490E-01  1088   0.240E+00    0.191E+00
DAV:   3    -0.157033316173E+03    0.20152E-01   -0.91647E-02  1088   0.213E+00    0.243E-01
DAV:   4    -0.157033144969E+03    0.17120E-03   -0.67824E-03   880   0.541E-01    0.794E-02
DAV:   5    -0.157033183794E+03   -0.38825E-04   -0.12561E-03   944   0.231E-01    0.790E-02
DAV:   6    -0.157033120000E+03    0.63794E-04   -0.58641E-04   936   0.178E-01    0.458E-02
DAV:   7    -0.157033106061E+03    0.13939E-04   -0.16434E-04   880   0.771E-02    0.286E-02
DAV:   8    -0.157033103274E+03    0.27873E-05   -0.14726E-05   388   0.328E-02
  70 F= -.15703310E+03 E0= -.15695913E+03  d E =-.116456E-03
 trial-energy change:   -0.000116  1 .order   -0.000127   -0.000180   -0.000074
 step:   1.6338(harm=  1.6338)  dis= 0.00162  next Energy=  -157.033140 (dE=-0.153E-03)
 bond charge predicted
       N       E                     dE             d eps       ncg     rms          rms(c)
DAV:   1    -0.157033381845E+03   -0.27578E-03   -0.10362E-02   668   0.511E-01    0.185E-01
DAV:   2    -0.157043167857E+03   -0.97860E-02   -0.54007E-02  1088   0.168E+00    0.133E+00
DAV:   3    -0.157033216912E+03    0.99509E-02   -0.44238E-02  1088   0.151E+00    0.172E-01
DAV:   4    -0.157033130802E+03    0.86110E-04   -0.33285E-03   888   0.377E-01    0.577E-02
DAV:   5    -0.157033149204E+03   -0.18402E-04   -0.65680E-04   928   0.165E-01    0.569E-02
DAV:   6    -0.157033119139E+03    0.30066E-04   -0.30943E-04   912   0.126E-01    0.363E-02
DAV:   7    -0.157033109557E+03    0.95820E-05   -0.93056E-05   840   0.591E-02
  71 F= -.15703311E+03 E0= -.15695905E+03  d E =-.122739E-03
 curvature:  -1.50 expect dE=-0.181E-03 dE for cont linesearch -0.135E-06
 trial: gam= 0.61306 g(F)=  0.462E-04 g(S)=  0.747E-04 ort =-0.556E-05 (trialstep = 0.109E+01)
 search vector abs. value=  0.244E-03
 bond charge predicted
       N       E                     dE             d eps       ncg     rms          rms(c)
DAV:   1    -0.157033286529E+03   -0.16739E-03   -0.17977E-02   596   0.592E-01    0.125E-01
DAV:   2    -0.157035177754E+03   -0.18912E-02   -0.15455E-02  1040   0.906E-01    0.512E-01
DAV:   3    -0.157033329422E+03    0.18483E-02   -0.11994E-02  1080   0.766E-01    0.179E-01
DAV:   4    -0.157033184471E+03    0.14495E-03   -0.13394E-03  1032   0.282E-01    0.571E-02
DAV:   5    -0.157033200654E+03   -0.16183E-04   -0.61211E-04   916   0.166E-01    0.707E-02
DAV:   6    -0.157033169500E+03    0.31154E-04   -0.39287E-04   880   0.109E-01    0.410E-02
DAV:   7    -0.157033159276E+03    0.10224E-04   -0.12238E-04   880   0.786E-02    0.195E-02
DAV:   8    -0.157033159835E+03   -0.55907E-06   -0.42863E-05   544   0.513E-02
  72 F= -.15703316E+03 E0= -.15695938E+03  d E =-.502786E-04
 trial-energy change:   -0.000050  1 .order   -0.000039   -0.000128    0.000051
 step:   0.7830(harm=  0.7830)  dis= 0.00068  next Energy=  -157.033156 (dE=-0.460E-04)
 bond charge predicted
       N       E                     dE             d eps       ncg     rms          rms(c)
DAV:   1    -0.157033174861E+03   -0.15585E-04   -0.14518E-03   652   0.170E-01    0.347E-02
DAV:   2    -0.157033330892E+03   -0.15603E-03   -0.13050E-03  1048   0.262E-01    0.148E-01
DAV:   3    -0.157033177111E+03    0.15378E-03   -0.10039E-03  1072   0.224E-01    0.527E-02
DAV:   4    -0.157033162838E+03    0.14273E-04   -0.10680E-04   856   0.814E-02    0.151E-02
DAV:   5    -0.157033162984E+03   -0.14552E-06   -0.45082E-05   584   0.502E-02
  73 F= -.15703316E+03 E0= -.15695929E+03  d E =-.534272E-04
 curvature:  -0.81 expect dE=-0.345E-04 dE for cont linesearch -0.175E-05
 ZBRENT: interpolating
 opt :   0.6552  next Energy=  -157.033164 (dE=-0.549E-04)
 bond charge predicted
       N       E                     dE             d eps       ncg     rms          rms(c)
DAV:   1    -0.157033162525E+03    0.31355E-06   -0.24977E-04   656   0.722E-02    0.186E-02
DAV:   2    -0.157033208617E+03   -0.46093E-04   -0.35765E-04  1080   0.135E-01    0.879E-02
DAV:   3    -0.157033162260E+03    0.46357E-04   -0.28680E-04  1072   0.120E-01    0.272E-02
DAV:   4    -0.157033157266E+03    0.49946E-05   -0.17207E-05   348   0.435E-02
  74 F= -.15703316E+03 E0= -.15695922E+03  d E =-.477091E-04
 curvature:  -0.68 expect dE=-0.197E-04 dE for cont linesearch -0.822E-06
 ZBRENT: interpolating
 opt :   0.7099  next Energy=  -157.033158 (dE=-0.482E-04)
 bond charge predicted
       N       E                     dE             d eps       ncg     rms          rms(c)
DAV:   1    -0.157033158941E+03    0.33195E-05   -0.63682E-05   564   0.411E-02    0.797E-03
DAV:   2    -0.157033173308E+03   -0.14367E-04   -0.99635E-05   776   0.638E-02    0.407E-02
DAV:   3    -0.157033158557E+03    0.14751E-04   -0.58359E-05   636   0.593E-02    0.960E-03
DAV:   4    -0.157033158287E+03    0.26961E-06   -0.69849E-06   296   0.201E-02
  75 F= -.15703316E+03 E0= -.15695924E+03  d E =-.487306E-04
 curvature:  -0.39 expect dE=-0.160E-04 dE for cont linesearch -0.250E-06
 ZBRENT: bisectioning
 opt :   0.7464  next Energy=  -157.033159 (dE=-0.491E-04)
 bond charge predicted
       N       E                     dE             d eps       ncg     rms          rms(c)
DAV:   1    -0.157033158586E+03   -0.29544E-07   -0.20126E-05   312   0.241E-02    0.734E-03
DAV:   2    -0.157033160319E+03   -0.17327E-05   -0.14709E-05   272   0.362E-02
  76 F= -.15703316E+03 E0= -.15695928E+03  d E =-.507625E-04
 curvature:  -0.62 expect dE=-0.266E-04 dE for cont linesearch -0.315E-05
 ZBRENT: interpolating
 opt :   0.7195  next Energy=  -157.033158 (dE=-0.488E-04)
 bond charge predicted
       N       E                     dE             d eps       ncg     rms          rms(c)
DAV:   1    -0.157033159117E+03   -0.53103E-06   -0.99001E-06   272   0.292E-02    0.530E-03
DAV:   2    -0.157033162919E+03   -0.38013E-05   -0.13361E-05   344   0.420E-02
  77 F= -.15703316E+03 E0= -.15695932E+03  d E =-.533620E-04
 curvature:  -0.01 expect dE=-0.143E-05 dE for cont linesearch -0.717E-11
 trial: gam= 1.37846 g(F)=  0.396E-04 g(S)=  0.804E-04 ort =-0.383E-06 (trialstep = 0.426E+00)
 search vector abs. value=  0.582E-03
 bond charge predicted
       N       E                     dE             d eps       ncg     rms          rms(c)
DAV:   1    -0.157033206306E+03   -0.47189E-04   -0.60146E-03   544   0.275E-01    0.841E-02
DAV:   2    -0.157035504460E+03   -0.22982E-02   -0.12596E-02  1088   0.850E-01    0.629E-01
DAV:   3    -0.157033196405E+03    0.23081E-02   -0.10347E-02  1088   0.738E-01    0.937E-02
DAV:   4    -0.157033159040E+03    0.37365E-04   -0.77155E-04   928   0.189E-01    0.264E-02
DAV:   5    -0.157033158903E+03    0.13756E-06   -0.10171E-04   816   0.704E-02    0.218E-02
DAV:   6    -0.157033155523E+03    0.33799E-05   -0.47907E-05   624   0.565E-02
  78 F= -.15703316E+03 E0= -.15695931E+03  d E =0.739583E-05
 trial-energy change:    0.000007  1 .order   -0.000021   -0.000051    0.000009
 step:   0.3626(harm=  0.3626)  dis= 0.00056  next Energy=  -157.033185 (dE=-0.217E-04)
 reached required accuracy - stopping structural energy minimisation
