<?xml version="1.0" encoding="ISO-8859-1"?>
<modeling>
 <generator>
  <i name="program" type="string">vasp </i>
  <i name="version" type="string">5.4.4.18Apr17-6-g9f103f2a35  </i>
  <i name="subversion" type="string">(build Jul 11 2019 11:52:51) complex            parallel </i>
  <i name="platform" type="string">LinuxIFC </i>
  <i name="date" type="string">2023 11 29 </i>
  <i name="time" type="string">16:56:05 </i>
 </generator>
 <incar>
  <i type="int" name="ISTART">     0</i>
  <i type="string" name="PREC">normal</i>
  <i type="int" name="IBRION">     2</i>
  <i name="EDIFF">      0.00001000</i>
  <i name="EDIFFG">     -0.01000000</i>
  <i type="int" name="NSW">   500</i>
  <i type="int" name="ISIF">     3</i>
  <i name="POTIM">      0.50000000</i>
  <i type="int" name="ISMEAR">     0</i>
  <i name="SIGMA">      0.10000000</i>
  <i name="PSTRESS">      0.00000000</i>
  <i type="logical" name="LWAVE"> F  </i>
  <i type="logical" name="LCHARG"> F  </i>
  <v type="int" name="KPOINT_BSE">    -1     0     0     0</v>
 </incar>
 <structure name="primitive_cell" >
  <crystal>
   <varray name="basis" >
    <v>       6.71881500       0.00000000       0.00000000 </v>
    <v>       2.29540200       6.31455500       0.00000000 </v>
    <v>       2.29540200       1.60795400       6.10639800 </v>
   </varray>
   <i name="volume">    259.07203744 </i>
   <varray name="rec_basis" >
    <v>       0.14883577      -0.05410325      -0.04170092 </v>
    <v>       0.00000000       0.15836429      -0.04170093 </v>
    <v>       0.00000000       0.00000000       0.16376266 </v>
   </varray>
  </crystal>
  <varray name="positions" >
   <v>      -0.50000000      -0.50000000       0.00000000 </v>
   <v>      -0.37716000      -0.37716000      -0.37716000 </v>
   <v>       0.37716000       0.37716000       0.37716000 </v>
   <v>      -0.25710000       0.21466500       0.21466500 </v>
   <v>       0.25710000      -0.21466500      -0.21466500 </v>
   <v>       0.21466500      -0.25710000       0.21466500 </v>
   <v>      -0.21466500       0.25710000      -0.21466500 </v>
   <v>      -0.25160000      -0.25160000      -0.25160000 </v>
   <v>       0.25160000       0.25160000       0.25160000 </v>
   <v>       0.00000000      -0.50000000       0.00000000 </v>
   <v>      -0.50000000       0.00000000       0.00000000 </v>
   <v>      -0.50000000      -0.50000000      -0.50000000 </v>
   <v>       0.13079900       0.13079900       0.13079900 </v>
   <v>      -0.13079900      -0.13079900      -0.13079900 </v>
   <v>       0.00000000       0.00000000       0.00000000 </v>
   <v>      -0.50000000       0.00000000      -0.50000000 </v>
   <v>       0.00000000      -0.50000000      -0.50000000 </v>
   <v>       0.21466500       0.21466500      -0.25710000 </v>
   <v>      -0.21466500      -0.21466500       0.25710000 </v>
   <v>       0.00000000       0.00000000      -0.50000000 </v>
  </varray>
 </structure>
 <varray name="primitive_index" >
  <v type="int" >        1 </v>
  <v type="int" >       12 </v>
  <v type="int" >       13 </v>
  <v type="int" >        7 </v>
  <v type="int" >       10 </v>
  <v type="int" >        5 </v>
  <v type="int" >        8 </v>
  <v type="int" >       16 </v>
  <v type="int" >       17 </v>
  <v type="int" >       20 </v>
  <v type="int" >       19 </v>
  <v type="int" >       11 </v>
  <v type="int" >       14 </v>
  <v type="int" >       15 </v>
  <v type="int" >        4 </v>
  <v type="int" >        3 </v>
  <v type="int" >        2 </v>
  <v type="int" >        6 </v>
  <v type="int" >        9 </v>
  <v type="int" >       18 </v>
 </varray>
 <kpoints>
  <generation param="Gamma">
   <v type="int" name="divisions">       2        2        2 </v>
   <v name="usershift">      0.00000000       0.00000000       0.00000000 </v>
   <v name="genvec1">      0.50000000      -0.00000000      -0.00000000 </v>
   <v name="genvec2">      0.00000000       0.50000000      -0.00000000 </v>
   <v name="genvec3">      0.00000000       0.00000000       0.50000000 </v>
   <v name="shift">      0.00000000       0.00000000       0.00000000 </v>
  </generation>
  <varray name="kpointlist" >
   <v>       0.00000000       0.00000000       0.00000000 </v>
   <v>       0.50000000      -0.00000000      -0.00000000 </v>
   <v>       0.50000000       0.50000000      -0.00000000 </v>
   <v>       0.50000000       0.50000000       0.50000000 </v>
  </varray>
  <varray name="weights" >
   <v>       0.12500000 </v>
   <v>       0.37500000 </v>
   <v>       0.37500000 </v>
   <v>       0.12500000 </v>
  </varray>
 </kpoints>
 <parameters>
  <separator name="general" >
   <i type="string" name="SYSTEM">unknown system</i>
   <i type="logical" name="LCOMPAT"> F  </i>
  </separator>
  <separator name="electronic" >
   <i type="string" name="PREC">normal</i>
   <i name="ENMAX">    267.88200000</i>
   <i name="ENAUG">    511.36800000</i>
   <i name="EDIFF">      0.00001000</i>
   <i type="int" name="IALGO">    38</i>
   <i type="int" name="IWAVPR">    11</i>
   <i type="int" name="NBANDS">    68</i>
   <i name="NELECT">    109.00000000</i>
   <i type="int" name="TURBO">     0</i>
   <i type="int" name="IRESTART">     0</i>
   <i type="int" name="NREBOOT">     0</i>
   <i type="int" name="NMIN">     0</i>
   <i name="EREF">      0.00000000</i>
   <separator name="electronic smearing" >
    <i type="int" name="ISMEAR">     0</i>
    <i name="SIGMA">      0.10000000</i>
    <i name="KSPACING">      0.50000000</i>
    <i type="logical" name="KGAMMA"> T  </i>
   </separator>
   <separator name="electronic projectors" >
    <i type="logical" name="LREAL"> F  </i>
    <v name="ROPT">      0.00000000      0.00000000</v>
    <i type="int" name="LMAXPAW">  -100</i>
    <i type="int" name="LMAXMIX">     2</i>
    <i type="logical" name="NLSPLINE"> F  </i>
   </separator>
   <separator name="electronic startup" >
    <i type="int" name="ISTART">     0</i>
    <i type="int" name="ICHARG">     2</i>
    <i type="int" name="INIWAV">     1</i>
   </separator>
   <separator name="electronic spin" >
    <i type="int" name="ISPIN">     1</i>
    <i type="logical" name="LNONCOLLINEAR"> F  </i>
    <v name="MAGMOM">      1.00000000      1.00000000      1.00000000      1.00000000      1.00000000      1.00000000      1.00000000      1.00000000      1.00000000      1.00000000      1.00000000      1.00000000      1.00000000      1.00000000      1.00000000      1.00000000      1.00000000      1.00000000      1.00000000      1.00000000
</v>
    <i name="NUPDOWN">     -1.00000000</i>
    <i type="logical" name="LSORBIT"> F  </i>
    <v name="SAXIS">      0.00000000      0.00000000      1.00000000</v>
    <i type="logical" name="LSPIRAL"> F  </i>
    <v name="QSPIRAL">      0.00000000      0.00000000      0.00000000</v>
    <i type="logical" name="LZEROZ"> F  </i>
   </separator>
   <separator name="electronic exchange-correlation" >
    <i type="logical" name="LASPH"> F  </i>
    <i type="logical" name="LMETAGGA"> F  </i>
   </separator>
   <separator name="electronic convergence" >
    <i type="int" name="NELM">    60</i>
    <i type="int" name="NELMDL">    -5</i>
    <i type="int" name="NELMIN">     2</i>
    <i name="ENINI">    267.88200000</i>
    <separator name="electronic convergence detail" >
     <i type="logical" name="LDIAG"> T  </i>
     <i type="logical" name="LSUBROT"> F  </i>
     <i name="WEIMIN">      0.00100000</i>
     <i name="EBREAK">      0.00000004</i>
     <i name="DEPER">      0.30000000</i>
     <i type="int" name="NRMM">     4</i>
     <i name="TIME">      0.40000000</i>
    </separator>
   </separator>
   <separator name="electronic mixer" >
    <i name="AMIX">      0.40000000</i>
    <i name="BMIX">      1.00000000</i>
    <i name="AMIN">      0.10000000</i>
    <i name="AMIX_MAG">      1.60000000</i>
    <i name="BMIX_MAG">      1.00000000</i>
    <separator name="electronic mixer details" >
     <i type="int" name="IMIX">     4</i>
     <i type="logical" name="MIXFIRST"> F  </i>
     <i type="int" name="MAXMIX">   -45</i>
     <i name="WC">    100.00000000</i>
     <i type="int" name="INIMIX">     1</i>
     <i type="int" name="MIXPRE">     1</i>
     <i type="int" name="MREMOVE">     5</i>
    </separator>
   </separator>
   <separator name="electronic dipolcorrection" >
    <i type="logical" name="LDIPOL"> F  </i>
    <i type="logical" name="LMONO"> F  </i>
    <i type="int" name="IDIPOL">     0</i>
    <i name="EPSILON">      1.00000000</i>
    <v name="DIPOL">   -100.00000000   -100.00000000   -100.00000000</v>
    <i name="EFIELD">      0.00000000</i>
   </separator>
  </separator>
  <separator name="grids" >
   <i type="int" name="NGX">    28</i>
   <i type="int" name="NGY">    28</i>
   <i type="int" name="NGZ">    28</i>
   <i type="int" name="NGXF">    56</i>
   <i type="int" name="NGYF">    56</i>
   <i type="int" name="NGZF">    56</i>
   <i type="logical" name="ADDGRID"> F  </i>
  </separator>
  <separator name="ionic" >
   <i type="int" name="NSW">   500</i>
   <i type="int" name="IBRION">     2</i>
   <i type="int" name="MDALGO">     0</i>
   <i type="int" name="ISIF">     3</i>
   <i name="PSTRESS">      0.00000000</i>
   <i name="EDIFFG">     -0.01000000</i>
   <i type="int" name="NFREE">     1</i>
   <i name="POTIM">      0.50000000</i>
   <i name="SMASS">     -3.00000000</i>
   <i name="SCALEE">      1.00000000</i>
  </separator>
  <separator name="ionic md" >
   <i name="TEBEG">      0.00010000</i>
   <i name="TEEND">      0.00010000</i>
   <i type="int" name="NBLOCK">     1</i>
   <i type="int" name="KBLOCK">   500</i>
   <i type="int" name="NPACO">   256</i>
   <i name="APACO">     16.00000000</i>
  </separator>
  <separator name="symmetry" >
   <i type="int" name="ISYM">     2</i>
   <i name="SYMPREC">      0.00001000</i>
  </separator>
  <separator name="dos" >
   <i type="int" name="LORBIT">     0</i>
   <v name="RWIGS">     -1.00000000     -1.00000000</v>
   <i type="int" name="NEDOS">   301</i>
   <i name="EMIN">     10.00000000</i>
   <i name="EMAX">    -10.00000000</i>
   <i name="EFERMI">      0.00000000</i>
  </separator>
  <separator name="writing" >
   <i type="int" name="NWRITE">     2</i>
   <i type="logical" name="LWAVE"> F  </i>
   <i type="logical" name="LDOWNSAMPLE"> F  </i>
   <i type="logical" name="LCHARG"> F  </i>
   <i type="logical" name="LPARD"> F  </i>
   <i type="logical" name="LVTOT"> F  </i>
   <i type="logical" name="LVHAR"> F  </i>
   <i type="logical" name="LELF"> F  </i>
   <i type="logical" name="LOPTICS"> F  </i>
   <v name="STM">      0.00000000      0.00000000      0.00000000      0.00000000      0.00000000      0.00000000      0.00000000</v>
  </separator>
  <separator name="performance" >
   <i type="int" name="NPAR">     4</i>
   <i type="int" name="NSIM">     4</i>
   <i type="int" name="NBLK">    -1</i>
   <i type="logical" name="LPLANE"> T  </i>
   <i type="logical" name="LSCALAPACK"> T  </i>
   <i type="logical" name="LSCAAWARE"> F  </i>
   <i type="logical" name="LSCALU"> F  </i>
   <i type="logical" name="LASYNC"> F  </i>
   <i type="logical" name="LORBITALREAL"> F  </i>
  </separator>
  <separator name="miscellaneous" >
   <i type="int" name="IDIOT">     3</i>
   <i type="int" name="ISPECIAL">     0</i>
   <i type="logical" name="LMUSIC"> F  </i>
   <v name="POMASS">     50.94100000     55.84700000</v>
   <v name="DARWINR">      0.00000000      0.00000000</v>
   <v name="DARWINV">      1.00000000      1.00000000</v>
   <i type="logical" name="LCORR"> T  </i>
  </separator>
  <i type="logical" name="GGA_COMPAT"> T  </i>
  <i type="logical" name="LBERRY"> F  </i>
  <i type="int" name="ICORELEVEL">     0</i>
  <i type="logical" name="LDAU"> F  </i>
  <i type="int" name="I_CONSTRAINED_M">     0</i>
  <separator name="electronic exchange-correlation" >
   <i type="string" name="GGA">--</i>
   <i type="int" name="VOSKOWN">     0</i>
   <i type="logical" name="LHFCALC"> F  </i>
   <i type="string" name="PRECFOCK"></i>
   <i type="logical" name="LSYMGRAD"> F  </i>
   <i type="logical" name="LHFONE"> F  </i>
   <i type="logical" name="LRHFCALC"> F  </i>
   <i type="logical" name="LTHOMAS"> F  </i>
   <i type="logical" name="LMODELHF"> F  </i>
   <i name="ENCUT4O">     -1.00000000</i>
   <i type="int" name="EXXOEP">     0</i>
   <i type="int" name="FOURORBIT">     0</i>
   <i name="AEXX">      0.00000000</i>
   <i name="HFALPHA">      0.00000000</i>
   <i name="MCALPHA">      0.00000000</i>
   <i name="ALDAX">      1.00000000</i>
   <i name="AGGAX">      1.00000000</i>
   <i name="ALDAC">      1.00000000</i>
   <i name="AGGAC">      1.00000000</i>
   <i type="int" name="NKREDX">     1</i>
   <i type="int" name="NKREDY">     1</i>
   <i type="int" name="NKREDZ">     1</i>
   <i type="logical" name="SHIFTRED"> F  </i>
   <i type="logical" name="ODDONLY"> F  </i>
   <i type="logical" name="EVENONLY"> F  </i>
   <i type="int" name="LMAXFOCK">     0</i>
   <i type="int" name="NMAXFOCKAE">     0</i>
   <i type="logical" name="LFOCKAEDFT"> F  </i>
   <i name="HFSCREEN">      0.00000000</i>
   <i name="HFSCREENC">      0.00000000</i>
   <i type="int" name="NBANDSGWLOW">     0</i>
  </separator>
  <separator name="vdW DFT" >
   <i type="logical" name="LUSE_VDW"> F  </i>
   <i name="Zab_VDW">     -0.84910000</i>
   <i name="PARAM1">      0.12340000</i>
   <i name="PARAM2">      1.00000000</i>
   <i name="PARAM3">      0.00000000</i>
  </separator>
  <separator name="model GW" >
   <i type="int" name="MODEL_GW">     0</i>
   <i name="MODEL_EPS0">      7.77216112</i>
   <i name="MODEL_ALPHA">      1.00000000</i>
  </separator>
  <separator name="linear response parameters" >
   <i type="logical" name="LEPSILON"> F  </i>
   <i type="logical" name="LRPA"> F  </i>
   <i type="logical" name="LNABLA"> F  </i>
   <i type="logical" name="LVEL"> F  </i>
   <i type="int" name="KINTER">     0</i>
   <i name="CSHIFT">      0.10000000</i>
   <i name="OMEGAMAX">     -1.00000000</i>
   <i name="DEG_THRESHOLD">      0.00200000</i>
   <i name="RTIME">     -0.10000000</i>
   <i name="WPLASMAI">      0.00000000</i>
   <v name="DFIELD">      0.00000000      0.00000000      0.00000000</v>
   <v name="WPLASMA">      0.00000000      0.00000000      0.00000000      0.00000000      0.00000000      0.00000000      0.00000000      0.00000000      0.00000000</v>
  </separator>
  <separator name="orbital magnetization" >
   <i type="logical" name="NUCIND"> F  </i>
   <v name="MAGPOS">      0.00000000      0.00000000      0.00000000</v>
   <i type="logical" name="LNICSALL"> T  </i>
   <i type="logical" name="ORBITALMAG"> F  </i>
   <i type="logical" name="LMAGBLOCH"> F  </i>
   <i type="logical" name="LCHIMAG"> F  </i>
   <i type="logical" name="LGAUGE"> T  </i>
   <i type="int" name="MAGATOM">     0</i>
   <v name="MAGDIPOL">      0.00000000      0.00000000      0.00000000</v>
   <v name="AVECCONST">      0.00000000      0.00000000      0.00000000</v>
  </separator>
  <separator name="response functions" >
   <i type="logical" name="LADDER"> F  </i>
   <i type="logical" name="LRPAFORCE"> F  </i>
   <i type="logical" name="LFXC"> F  </i>
   <i type="logical" name="LHARTREE"> T  </i>
   <i type="int" name="IBSE">     0</i>
   <v type="int" name="KPOINT">    -1     0     0     0</v>
   <i type="logical" name="LTCTE"> F  </i>
   <i type="logical" name="LTETE"> F  </i>
   <i type="logical" name="LTRIPLET"> F  </i>
   <i type="logical" name="LFXCEPS"> F  </i>
   <i type="logical" name="LFXHEG"> F  </i>
   <i type="int" name="NATURALO">     2</i>
   <i type="logical" name="L2ORDER"> F  </i>
   <i type="logical" name="LMP2LT"> F  </i>
   <i type="logical" name="LUSEW"> F  </i>
   <i name="ENCUTGW">     -2.00000000</i>
   <i name="ENCUTGWSOFT">     -2.00000000</i>
   <i name="ENCUTLF">     -1.00000000</i>
   <i type="int" name="LMAXMP2">    -1</i>
   <i name="SCISSOR">      0.00000000</i>
   <i type="int" name="NOMEGA">     0</i>
   <i type="int" name="NOMEGAR">     0</i>
   <i type="int" name="NBANDSGW">    -1</i>
   <i type="int" name="NBANDSO">    -1</i>
   <i type="int" name="NBANDSV">    -1</i>
   <i type="int" name="NELM">     1</i>
   <i type="int" name="NELMHF">     1</i>
   <i type="int" name="DIM">     3</i>
   <i type="int" name="ANTIRES">     0</i>
   <i name="OMEGAMAX">    -30.00000000</i>
   <i name="OMEGAMIN">    -30.00000000</i>
   <i name="OMEGATL">   -200.00000000</i>
   <i type="int" name="OMEGAGRID">   140</i>
   <i name="CSHIFT">     -0.10000000</i>
   <i type="logical" name="SELFENERGY"> F  </i>
   <i type="logical" name="LSPECTRAL"> F  </i>
   <i type="logical" name="LSPECTRALGW"> F  </i>
   <i type="logical" name="LSINGLES"> F  </i>
   <i type="logical" name="LFERMIGW"> F  </i>
   <i type="logical" name="ODDONLYGW"> F  </i>
   <i type="logical" name="EVENONLYGW"> F  </i>
   <i type="int" name="NKREDLFX">     1</i>
   <i type="int" name="NKREDLFY">     1</i>
   <i type="int" name="NKREDLFZ">     1</i>
   <i type="int" name="MAXMEM">  2800</i>
   <i type="int" name="TELESCOPE">     0</i>
   <i type="int" name="TAUPAR">     1</i>
   <i type="int" name="OMEGAPAR">    -1</i>
   <i name="LAMBDA">      1.00000000</i>
  </separator>
  <separator name="External order field" >
   <i name="OFIELD_KAPPA">      0.00000000</i>
   <v name="OFIELD_K">      0.00000000      0.00000000      0.00000000</v>
   <i name="OFIELD_Q6_NEAR">      0.00000000</i>
   <i name="OFIELD_Q6_FAR">      0.00000000</i>
   <i name="OFIELD_A">      0.00000000</i>
  </separator>
 </parameters>
 <atominfo>
  <atoms>      20 </atoms>
  <types>       2 </types>
  <array name="atoms" >
   <dimension dim="1">ion</dimension>
   <field type="string">element</field>
   <field type="int">atomtype</field>
   <set>
    <rc><c>V </c><c>   1</c></rc>
    <rc><c>V </c><c>   1</c></rc>
    <rc><c>V </c><c>   1</c></rc>
    <rc><c>V </c><c>   1</c></rc>
    <rc><c>V </c><c>   1</c></rc>
    <rc><c>V </c><c>   1</c></rc>
    <rc><c>V </c><c>   1</c></rc>
    <rc><c>V </c><c>   1</c></rc>
    <rc><c>V </c><c>   1</c></rc>
    <rc><c>V </c><c>   1</c></rc>
    <rc><c>V </c><c>   1</c></rc>
    <rc><c>V </c><c>   1</c></rc>
    <rc><c>V </c><c>   1</c></rc>
    <rc><c>V </c><c>   1</c></rc>
    <rc><c>V </c><c>   1</c></rc>
    <rc><c>V </c><c>   1</c></rc>
    <rc><c>V </c><c>   1</c></rc>
    <rc><c>Fe</c><c>   2</c></rc>
    <rc><c>Fe</c><c>   2</c></rc>
    <rc><c>Fe</c><c>   2</c></rc>
   </set>
  </array>
  <array name="atomtypes" >
   <dimension dim="1">type</dimension>
   <field type="int">atomspertype</field>
   <field type="string">element</field>
   <field>mass</field>
   <field>valence</field>
   <field type="string">pseudopotential</field>
   <set>
    <rc><c>  17</c><c>V </c><c>     50.94100000</c><c>      5.00000000</c><c>  PAW_PBE V 08Apr2002                   </c></rc>
    <rc><c>   3</c><c>Fe</c><c>     55.84700000</c><c>      8.00000000</c><c>  PAW_PBE Fe 06Sep2000                  </c></rc>
   </set>
  </array>
 </atominfo>
 <structure name="initialpos" >
  <crystal>
   <varray name="basis" >
    <v>       6.71881500       0.00000000       0.00000000 </v>
    <v>       2.29540200       6.31455500       0.00000000 </v>
    <v>       2.29540200       1.60795400       6.10639800 </v>
   </varray>
   <i name="volume">    259.07203744 </i>
   <varray name="rec_basis" >
    <v>       0.14883577      -0.05410325      -0.04170092 </v>
    <v>       0.00000000       0.15836429      -0.04170093 </v>
    <v>       0.00000000       0.00000000       0.16376266 </v>
   </varray>
  </crystal>
  <varray name="positions" >
   <v>       0.50000000       0.50000000       0.00000000 </v>
   <v>       0.00000000       0.50000000       0.50000000 </v>
   <v>       0.50000000       0.00000000       0.50000000 </v>
   <v>       0.00000000       0.00000000       0.00000000 </v>
   <v>       0.21466500       0.74290000       0.21466500 </v>
   <v>       0.21466500       0.21466500       0.74290000 </v>
   <v>       0.74290000       0.21466500       0.21466500 </v>
   <v>       0.78533500       0.25710000       0.78533500 </v>
   <v>       0.78533500       0.78533500       0.25710000 </v>
   <v>       0.25710000       0.78533500       0.78533500 </v>
   <v>       0.50000000       0.50000000       0.50000000 </v>
   <v>       0.62284000       0.62284000       0.62284000 </v>
   <v>       0.37716000       0.37716000       0.37716000 </v>
   <v>       0.13079900       0.13079900       0.13079900 </v>
   <v>       0.86920100       0.86920100       0.86920100 </v>
   <v>       0.74840000       0.74840000       0.74840000 </v>
   <v>       0.25160000       0.25160000       0.25160000 </v>
   <v>       0.00000000       0.00000000       0.50000000 </v>
   <v>       0.50000000       0.00000000       0.00000000 </v>
   <v>       0.00000000       0.50000000       0.00000000 </v>
  </varray>
 </structure>
 <calculation>
  <scstep>
   <time name="dav">    0.71    0.71</time>
   <time name="total">    0.77    0.77</time>
   <energy>
    <i name="alphaZ">    552.45266642 </i>
    <i name="ewald">  -5075.84684447 </i>
    <i name="hartreedc">   -913.80832050 </i>
    <i name="XCdc">   -770.71737334 </i>
    <i name="pawpsdc">   5171.05454107 </i>
    <i name="pawaedc">  -4356.08836938 </i>
    <i name="eentropy">     -0.06650939 </i>
    <i name="bandstr">   1376.38525457 </i>
    <i name="atom">   4687.48422623 </i>
    <i name="e_fr_energy">    670.84927122 </i>
    <i name="e_wo_entrp">    670.91578061 </i>
    <i name="e_0_energy">    670.88252591 </i>
   </energy>
  </scstep>
  <scstep>
   <time name="dav">    0.74    0.74</time>
   <time name="total">    0.74    0.74</time>
   <energy>
    <i name="e_fr_energy">    -47.55459541 </i>
    <i name="e_wo_entrp">    -47.46876155 </i>
    <i name="e_0_energy">    -47.51167848 </i>
   </energy>
  </scstep>
  <scstep>
   <time name="dav">    1.05    1.05</time>
   <time name="total">    1.05    1.05</time>
   <energy>
    <i name="e_fr_energy">   -169.86948612 </i>
    <i name="e_wo_entrp">   -169.79224420 </i>
    <i name="e_0_energy">   -169.83086516 </i>
   </energy>
  </scstep>
  <scstep>
   <time name="dav">    1.03    1.03</time>
   <time name="total">    1.03    1.03</time>
   <energy>
    <i name="e_fr_energy">   -182.67845806 </i>
    <i name="e_wo_entrp">   -182.58984955 </i>
    <i name="e_0_energy">   -182.63415380 </i>
   </energy>
  </scstep>
  <scstep>
   <time name="dav">    1.09    1.09</time>
   <time name="total">    1.13    1.13</time>
   <energy>
    <i name="e_fr_energy">   -183.55129644 </i>
    <i name="e_wo_entrp">   -183.46172789 </i>
    <i name="e_0_energy">   -183.50651216 </i>
   </energy>
  </scstep>
  <scstep>
   <time name="dav">    1.25    1.25</time>
   <time name="total">    1.34    1.34</time>
   <energy>
    <i name="e_fr_energy">   -331.48340344 </i>
    <i name="e_wo_entrp">   -331.40802766 </i>
    <i name="e_0_energy">   -331.44571555 </i>
   </energy>
  </scstep>
  <scstep>
   <time name="dav">    1.08    1.08</time>
   <time name="total">    1.17    1.17</time>
   <energy>
    <i name="e_fr_energy">   -251.21915890 </i>
    <i name="e_wo_entrp">   -251.19722832 </i>
    <i name="e_0_energy">   -251.20819361 </i>
   </energy>
  </scstep>
  <scstep>
   <time name="dav">    1.08    1.08</time>
   <time name="total">    1.17    1.17</time>
   <energy>
    <i name="e_fr_energy">   -154.92204021 </i>
    <i name="e_wo_entrp">   -154.85362194 </i>
    <i name="e_0_energy">   -154.88783108 </i>
   </energy>
  </scstep>
  <scstep>
   <time name="dav">    1.14    1.14</time>
   <time name="total">    1.23    1.23</time>
   <energy>
    <i name="e_fr_energy">   -153.30809626 </i>
    <i name="e_wo_entrp">   -153.17565449 </i>
    <i name="e_0_energy">   -153.24187538 </i>
   </energy>
  </scstep>
  <scstep>
   <time name="dav">    1.07    1.07</time>
   <time name="total">    1.17    1.17</time>
   <energy>
    <i name="e_fr_energy">   -155.42809164 </i>
    <i name="e_wo_entrp">   -155.29926264 </i>
    <i name="e_0_energy">   -155.36367714 </i>
   </energy>
  </scstep>
  <scstep>
   <time name="dav">    1.14    1.14</time>
   <time name="total">    1.23    1.23</time>
   <energy>
    <i name="e_fr_energy">   -154.90511940 </i>
    <i name="e_wo_entrp">   -154.80291479 </i>
    <i name="e_0_energy">   -154.85401710 </i>
   </energy>
  </scstep>
  <scstep>
   <time name="dav">    1.19    1.19</time>
   <time name="total">    1.28    1.28</time>
   <energy>
    <i name="e_fr_energy">   -151.87481959 </i>
    <i name="e_wo_entrp">   -151.76023122 </i>
    <i name="e_0_energy">   -151.81752541 </i>
   </energy>
  </scstep>
  <scstep>
   <time name="dav">    1.14    1.15</time>
   <time name="total">    1.24    1.24</time>
   <energy>
    <i name="e_fr_energy">   -151.67248166 </i>
    <i name="e_wo_entrp">   -151.56508357 </i>
    <i name="e_0_energy">   -151.61878262 </i>
   </energy>
  </scstep>
  <scstep>
   <time name="dav">    1.10    1.10</time>
   <time name="total">    1.19    1.19</time>
   <energy>
    <i name="e_fr_energy">   -151.44392854 </i>
    <i name="e_wo_entrp">   -151.32156607 </i>
    <i name="e_0_energy">   -151.38274731 </i>
   </energy>
  </scstep>
  <scstep>
   <time name="dav">    1.16    1.16</time>
   <time name="total">    1.24    1.25</time>
   <energy>
    <i name="e_fr_energy">   -151.44091934 </i>
    <i name="e_wo_entrp">   -151.30983928 </i>
    <i name="e_0_energy">   -151.37537931 </i>
   </energy>
  </scstep>
  <scstep>
   <time name="dav">    1.10    1.10</time>
   <time name="total">    1.19    1.20</time>
   <energy>
    <i name="e_fr_energy">   -151.42486511 </i>
    <i name="e_wo_entrp">   -151.29231964 </i>
    <i name="e_0_energy">   -151.35859237 </i>
   </energy>
  </scstep>
  <scstep>
   <time name="dav">    1.25    1.25</time>
   <time name="total">    1.35    1.35</time>
   <energy>
    <i name="e_fr_energy">   -151.40817996 </i>
    <i name="e_wo_entrp">   -151.27963465 </i>
    <i name="e_0_energy">   -151.34390730 </i>
   </energy>
  </scstep>
  <scstep>
   <time name="dav">    1.17    1.17</time>
   <time name="total">    1.26    1.27</time>
   <energy>
    <i name="e_fr_energy">   -151.40287583 </i>
    <i name="e_wo_entrp">   -151.27298096 </i>
    <i name="e_0_energy">   -151.33792840 </i>
   </energy>
  </scstep>
  <scstep>
   <time name="dav">    1.14    1.14</time>
   <time name="total">    1.23    1.23</time>
   <energy>
    <i name="e_fr_energy">   -151.40309385 </i>
    <i name="e_wo_entrp">   -151.27245447 </i>
    <i name="e_0_energy">   -151.33777416 </i>
   </energy>
  </scstep>
  <scstep>
   <time name="dav">    1.17    1.18</time>
   <time name="total">    1.27    1.27</time>
   <energy>
    <i name="e_fr_energy">   -151.40239460 </i>
    <i name="e_wo_entrp">   -151.27215220 </i>
    <i name="e_0_energy">   -151.33727340 </i>
   </energy>
  </scstep>
  <scstep>
   <time name="dav">    1.07    1.07</time>
   <time name="total">    1.17    1.17</time>
   <energy>
    <i name="e_fr_energy">   -151.40218706 </i>
    <i name="e_wo_entrp">   -151.27186751 </i>
    <i name="e_0_energy">   -151.33702728 </i>
   </energy>
  </scstep>
  <scstep>
   <time name="dav">    1.26    1.26</time>
   <time name="total">    1.35    1.35</time>
   <energy>
    <i name="e_fr_energy">   -151.40217886 </i>
    <i name="e_wo_entrp">   -151.27164464 </i>
    <i name="e_0_energy">   -151.33691175 </i>
   </energy>
  </scstep>
  <scstep>
   <time name="dav">    1.17    1.17</time>
   <time name="total">    1.26    1.26</time>
   <energy>
    <i name="e_fr_energy">   -151.40201228 </i>
    <i name="e_wo_entrp">   -151.27161634 </i>
    <i name="e_0_energy">   -151.33681431 </i>
   </energy>
  </scstep>
  <scstep>
   <time name="dav">    1.05    1.05</time>
   <time name="total">    1.15    1.15</time>
   <energy>
    <i name="e_fr_energy">   -151.40195992 </i>
    <i name="e_wo_entrp">   -151.27155394 </i>
    <i name="e_0_energy">   -151.33675693 </i>
   </energy>
  </scstep>
  <scstep>
   <time name="dav">    0.94    0.94</time>
   <time name="total">    1.03    1.03</time>
   <energy>
    <i name="e_fr_energy">   -151.40193486 </i>
    <i name="e_wo_entrp">   -151.27159405 </i>
    <i name="e_0_energy">   -151.33676446 </i>
   </energy>
  </scstep>
  <scstep>
   <time name="dav">    0.58    0.58</time>
   <time name="total">    0.63    0.63</time>
   <energy>
    <i name="alphaZ">    552.45266642 </i>
    <i name="ewald">  -5075.84684447 </i>
    <i name="hartreedc">   -810.16877731 </i>
    <i name="XCdc">   -768.80002742 </i>
    <i name="pawpsdc">   9192.53761138 </i>
    <i name="pawaedc">  -8395.67793786 </i>
    <i name="eentropy">     -0.13032448 </i>
    <i name="bandstr">    466.74747488 </i>
    <i name="atom">   4687.48422623 </i>
    <i name="e_fr_energy">   -151.40193262 </i>
    <i name="e_wo_entrp">   -151.27160815 </i>
    <i name="e_0_energy">   -151.33677039 </i>
   </energy>
  </scstep>
  <structure>
   <crystal>
    <varray name="basis" >
     <v>       6.71881500       0.00000000       0.00000000 </v>
     <v>       2.29540200       6.31455500       0.00000000 </v>
     <v>       2.29540200       1.60795400       6.10639800 </v>
    </varray>
    <i name="volume">    259.07203744 </i>
    <varray name="rec_basis" >
     <v>       0.14883577      -0.05410325      -0.04170092 </v>
     <v>       0.00000000       0.15836429      -0.04170093 </v>
     <v>       0.00000000       0.00000000       0.16376266 </v>
    </varray>
   </crystal>
   <varray name="positions" >
    <v>       0.50000000       0.50000000       0.00000000 </v>
    <v>       0.00000000       0.50000000       0.50000000 </v>
    <v>       0.50000000       0.00000000       0.50000000 </v>
    <v>       0.00000000       0.00000000       0.00000000 </v>
    <v>       0.21466500       0.74290000       0.21466500 </v>
    <v>       0.21466500       0.21466500       0.74290000 </v>
    <v>       0.74290000       0.21466500       0.21466500 </v>
    <v>       0.78533500       0.25710000       0.78533500 </v>
    <v>       0.78533500       0.78533500       0.25710000 </v>
    <v>       0.25710000       0.78533500       0.78533500 </v>
    <v>       0.50000000       0.50000000       0.50000000 </v>
    <v>       0.62284000       0.62284000       0.62284000 </v>
    <v>       0.37716000       0.37716000       0.37716000 </v>
    <v>       0.13079900       0.13079900       0.13079900 </v>
    <v>       0.86920100       0.86920100       0.86920100 </v>
    <v>       0.74840000       0.74840000       0.74840000 </v>
    <v>       0.25160000       0.25160000       0.25160000 </v>
    <v>       0.00000000       0.00000000       0.50000000 </v>
    <v>       0.50000000       0.00000000       0.00000000 </v>
    <v>       0.00000000       0.50000000       0.00000000 </v>
   </varray>
  </structure>
  <varray name="forces" >
   <v>       0.00000000      -0.00000000      -0.00000000 </v>
   <v>       0.00000000      -0.00000000      -0.00000000 </v>
   <v>       0.00000000      -0.00000000      -0.00000000 </v>
   <v>       0.00000000      -0.00000000      -0.00000000 </v>
   <v>       0.97449845      -0.19312533       0.75677127 </v>
   <v>       0.97449845       0.68264651      -0.37946514 </v>
   <v>       0.15142027       0.98184350       0.75677127 </v>
   <v>      -0.97449845       0.19312533      -0.75677127 </v>
   <v>      -0.97449845      -0.68264651       0.37946514 </v>
   <v>      -0.15142027      -0.98184350      -0.75677127 </v>
   <v>       0.00000000      -0.00000000      -0.00000000 </v>
   <v>      -0.61050510      -0.42766535      -0.32962977 </v>
   <v>       0.61050510       0.42766535       0.32962977 </v>
   <v>       0.32976177       0.23100164       0.17804814 </v>
   <v>      -0.32976177      -0.23100164      -0.17804814 </v>
   <v>      -0.02807218      -0.01966487      -0.01515700 </v>
   <v>       0.02807218       0.01966487       0.01515700 </v>
   <v>       0.00000000      -0.00000000      -0.00000000 </v>
   <v>       0.00000000      -0.00000000      -0.00000000 </v>
   <v>       0.00000000      -0.00000000      -0.00000000 </v>
  </varray>
  <varray name="stress" >
   <v>     261.51448432      -7.64446499      -5.89209122 </v>
   <v>      -7.64446499     267.07215899      -4.12745256 </v>
   <v>      -5.89209122      -4.12745256     269.24591994 </v>
  </varray>
  <energy>
   <i name="e_fr_energy">   -151.40193262 </i>
   <i name="e_wo_entrp">   -151.33677039 </i>
   <i name="e_0_energy">     -0.13032448 </i>
  </energy>
  <time name="totalsc">   31.38   31.42</time>
 </calculation>
 <calculation>
  <scstep>
   <time name="dav">    0.76    0.76</time>
   <time name="total">    0.85    0.86</time>
   <energy>
    <i name="alphaZ">    410.87919241 </i>
    <i name="ewald">  -4613.69362421 </i>
    <i name="hartreedc">   -720.60115488 </i>
    <i name="XCdc">   -784.13977790 </i>
    <i name="pawpsdc">   9192.82389284 </i>
    <i name="pawaedc">  -8395.96548355 </i>
    <i name="eentropy">     -0.18734710 </i>
    <i name="bandstr">     19.12380291 </i>
    <i name="atom">   4687.48422623 </i>
    <i name="e_fr_energy">   -204.27627325 </i>
    <i name="e_wo_entrp">   -204.08892615 </i>
    <i name="e_0_energy">   -204.18259970 </i>
   </energy>
  </scstep>
  <scstep>
   <time name="dav">    1.01    1.01</time>
   <time name="total">    1.10    1.10</time>
   <energy>
    <i name="e_fr_energy">   -421.26642708 </i>
    <i name="e_wo_entrp">   -421.23386674 </i>
    <i name="e_0_energy">   -421.25014691 </i>
   </energy>
  </scstep>
  <scstep>
   <time name="dav">    1.09    1.09</time>
   <time name="total">    1.18    1.18</time>
   <energy>
    <i name="e_fr_energy">   -142.88188670 </i>
    <i name="e_wo_entrp">   -142.77619576 </i>
    <i name="e_0_energy">   -142.82904123 </i>
   </energy>
  </scstep>
  <scstep>
   <time name="dav">    1.29    1.29</time>
   <time name="total">    1.38    1.38</time>
   <energy>
    <i name="e_fr_energy">   -179.47793615 </i>
    <i name="e_wo_entrp">   -179.37864107 </i>
    <i name="e_0_energy">   -179.42828861 </i>
   </energy>
  </scstep>
  <scstep>
   <time name="dav">    1.12    1.13</time>
   <time name="total">    1.21    1.22</time>
   <energy>
    <i name="e_fr_energy">   -170.69826846 </i>
    <i name="e_wo_entrp">   -170.56540582 </i>
    <i name="e_0_energy">   -170.63183714 </i>
   </energy>
  </scstep>
  <scstep>
   <time name="dav">    1.17    1.17</time>
   <time name="total">    1.26    1.27</time>
   <energy>
    <i name="e_fr_energy">   -162.32925072 </i>
    <i name="e_wo_entrp">   -162.22185252 </i>
    <i name="e_0_energy">   -162.27555162 </i>
   </energy>
  </scstep>
  <scstep>
   <time name="dav">    1.23    1.23</time>
   <time name="total">    1.32    1.34</time>
   <energy>
    <i name="e_fr_energy">   -158.79063587 </i>
    <i name="e_wo_entrp">   -158.68299056 </i>
    <i name="e_0_energy">   -158.73681322 </i>
   </energy>
  </scstep>
  <scstep>
   <time name="dav">    1.26    1.27</time>
   <time name="total">    1.35    1.36</time>
   <energy>
    <i name="e_fr_energy">   -153.75552563 </i>
    <i name="e_wo_entrp">   -153.58550106 </i>
    <i name="e_0_energy">   -153.67051334 </i>
   </energy>
  </scstep>
  <scstep>
   <time name="dav">    1.07    1.07</time>
   <time name="total">    1.16    1.16</time>
   <energy>
    <i name="e_fr_energy">   -152.82120452 </i>
    <i name="e_wo_entrp">   -152.63800816 </i>
    <i name="e_0_energy">   -152.72960634 </i>
   </energy>
  </scstep>
  <scstep>
   <time name="dav">    1.16    1.16</time>
   <time name="total">    1.25    1.25</time>
   <energy>
    <i name="e_fr_energy">   -153.00788380 </i>
    <i name="e_wo_entrp">   -152.88610841 </i>
    <i name="e_0_energy">   -152.94699610 </i>
   </energy>
  </scstep>
  <scstep>
   <time name="dav">    1.16    1.16</time>
   <time name="total">    1.25    1.25</time>
   <energy>
    <i name="e_fr_energy">   -154.35897911 </i>
    <i name="e_wo_entrp">   -154.19955391 </i>
    <i name="e_0_energy">   -154.27926651 </i>
   </energy>
  </scstep>
  <scstep>
   <time name="dav">    1.06    1.06</time>
   <time name="total">    1.15    1.15</time>
   <energy>
    <i name="e_fr_energy">   -152.97236405 </i>
    <i name="e_wo_entrp">   -152.78701117 </i>
    <i name="e_0_energy">   -152.87968761 </i>
   </energy>
  </scstep>
  <scstep>
   <time name="dav">    1.13    1.13</time>
   <time name="total">    1.23    1.23</time>
   <energy>
    <i name="e_fr_energy">   -152.90505338 </i>
    <i name="e_wo_entrp">   -152.73273401 </i>
    <i name="e_0_energy">   -152.81889369 </i>
   </energy>
  </scstep>
  <scstep>
   <time name="dav">    1.10    1.10</time>
   <time name="total">    1.19    1.19</time>
   <energy>
    <i name="e_fr_energy">   -152.37959790 </i>
    <i name="e_wo_entrp">   -152.20156006 </i>
    <i name="e_0_energy">   -152.29057898 </i>
   </energy>
  </scstep>
  <scstep>
   <time name="dav">    1.21    1.21</time>
   <time name="total">    1.30    1.30</time>
   <energy>
    <i name="e_fr_energy">   -152.20603986 </i>
    <i name="e_wo_entrp">   -152.03392954 </i>
    <i name="e_0_energy">   -152.11998470 </i>
   </energy>
  </scstep>
  <scstep>
   <time name="dav">    1.17    1.18</time>
   <time name="total">    1.26    1.27</time>
   <energy>
    <i name="e_fr_energy">   -152.26472056 </i>
    <i name="e_wo_entrp">   -152.08494326 </i>
    <i name="e_0_energy">   -152.17483191 </i>
   </energy>
  </scstep>
  <scstep>
   <time name="dav">    1.12    1.12</time>
   <time name="total">    1.21    1.21</time>
   <energy>
    <i name="e_fr_energy">   -152.22265947 </i>
    <i name="e_wo_entrp">   -152.04404677 </i>
    <i name="e_0_energy">   -152.13335312 </i>
   </energy>
  </scstep>
  <scstep>
   <time name="dav">    1.19    1.19</time>
   <time name="total">    1.28    1.28</time>
   <energy>
    <i name="e_fr_energy">   -152.11933072 </i>
    <i name="e_wo_entrp">   -151.97510173 </i>
    <i name="e_0_energy">   -152.04721623 </i>
   </energy>
  </scstep>
  <scstep>
   <time name="dav">    0.94    0.94</time>
   <time name="total">    1.03    1.03</time>
   <energy>
    <i name="e_fr_energy">   -152.11794178 </i>
    <i name="e_wo_entrp">   -151.96685252 </i>
    <i name="e_0_energy">   -152.04239715 </i>
   </energy>
  </scstep>
  <scstep>
   <time name="dav">    1.19    1.19</time>
   <time name="total">    1.28    1.29</time>
   <energy>
    <i name="e_fr_energy">   -152.11675375 </i>
    <i name="e_wo_entrp">   -151.96339147 </i>
    <i name="e_0_energy">   -152.04007261 </i>
   </energy>
  </scstep>
  <scstep>
   <time name="dav">    1.21    1.21</time>
   <time name="total">    1.30    1.30</time>
   <energy>
    <i name="e_fr_energy">   -152.11760074 </i>
    <i name="e_wo_entrp">   -151.96045389 </i>
    <i name="e_0_energy">   -152.03902732 </i>
   </energy>
  </scstep>
  <scstep>
   <time name="dav">    1.23    1.23</time>
   <time name="total">    1.32    1.32</time>
   <energy>
    <i name="e_fr_energy">   -152.11710489 </i>
    <i name="e_wo_entrp">   -151.96179506 </i>
    <i name="e_0_energy">   -152.03944998 </i>
   </energy>
  </scstep>
  <scstep>
   <time name="dav">    1.28    1.28</time>
   <time name="total">    1.38    1.38</time>
   <energy>
    <i name="e_fr_energy">   -152.11689875 </i>
    <i name="e_wo_entrp">   -151.96268489 </i>
    <i name="e_0_energy">   -152.03979182 </i>
   </energy>
  </scstep>
  <scstep>
   <time name="dav">    0.82    0.82</time>
   <time name="total">    0.87    0.87</time>
   <energy>
    <i name="alphaZ">    410.87919241 </i>
    <i name="ewald">  -4613.69362421 </i>
    <i name="hartreedc">   -918.77664944 </i>
    <i name="XCdc">   -779.33417222 </i>
    <i name="pawpsdc">   6852.29542058 </i>
    <i name="pawaedc">  -6040.17077081 </i>
    <i name="eentropy">     -0.15421120 </i>
    <i name="bandstr">    249.35368455 </i>
    <i name="atom">   4687.48422623 </i>
    <i name="e_fr_energy">   -152.11690411 </i>
    <i name="e_wo_entrp">   -151.96269291 </i>
    <i name="e_0_energy">   -152.03979851 </i>
   </energy>
  </scstep>
  <structure>
   <crystal>
    <varray name="basis" >
     <v>       7.40414475      -0.02003323      -0.01544092 </v>
     <v>       2.51070877       6.96549370      -0.01544088 </v>
     <v>       2.51070877       1.75877878       6.73981078 </v>
    </varray>
    <i name="volume">    348.33849102 </i>
    <varray name="rec_basis" >
     <v>       0.13484949      -0.04868962      -0.03752828 </v>
     <v>       0.00030965       0.14337004      -0.03752830 </v>
     <v>       0.00030965       0.00021691       0.14820016 </v>
    </varray>
   </crystal>
   <varray name="positions" >
    <v>       0.50000000       0.50000000      -0.00000000 </v>
    <v>       0.00000000       0.50000000       0.50000000 </v>
    <v>       0.50000000       0.00000000       0.50000000 </v>
    <v>       0.00000000       0.00000000      -0.00000000 </v>
    <v>       0.22064375       0.73990209       0.22064375 </v>
    <v>       0.22064375       0.22064375       0.73990209 </v>
    <v>       0.73990209       0.22064375       0.22064375 </v>
    <v>       0.77935625       0.26009791       0.77935625 </v>
    <v>       0.77935625       0.77935625       0.26009791 </v>
    <v>       0.26009791       0.77935625       0.77935625 </v>
    <v>       0.50000000       0.50000000       0.50000000 </v>
    <v>       0.62023581       0.62023581       0.62023581 </v>
    <v>       0.37976419       0.37976419       0.37976419 </v>
    <v>       0.13220564       0.13220564       0.13220564 </v>
    <v>       0.86779436       0.86779436       0.86779436 </v>
    <v>       0.74828025       0.74828025       0.74828025 </v>
    <v>       0.25171975       0.25171975       0.25171975 </v>
    <v>       0.00000000       0.00000000       0.50000000 </v>
    <v>       0.50000000       0.00000000      -0.00000000 </v>
    <v>       0.00000000       0.50000000      -0.00000000 </v>
   </varray>
  </structure>
  <varray name="forces" >
   <v>      -0.00000000      -0.00000000       0.00000000 </v>
   <v>       0.00000000      -0.00000000       0.00000000 </v>
   <v>      -0.00000000      -0.00000000       0.00000000 </v>
   <v>      -0.00000000      -0.00000000       0.00000000 </v>
   <v>      -0.00916182      -0.10027915       0.01976905 </v>
   <v>      -0.00916182      -0.00641796      -0.10200753 </v>
   <v>      -0.09737554       0.02564859       0.01976906 </v>
   <v>       0.00916182       0.10027915      -0.01976905 </v>
   <v>       0.00916182       0.00641796       0.10200753 </v>
   <v>       0.09737554      -0.02564859      -0.01976906 </v>
   <v>       0.00000000      -0.00000000       0.00000000 </v>
   <v>       0.27949494       0.19578919       0.15090759 </v>
   <v>      -0.27949494      -0.19578919      -0.15090759 </v>
   <v>      -0.21297941      -0.14919436      -0.11499389 </v>
   <v>       0.21297941       0.14919436       0.11499389 </v>
   <v>      -0.36828465      -0.25798733      -0.19884779 </v>
   <v>       0.36828465       0.25798733       0.19884779 </v>
   <v>      -0.00000000      -0.00000000       0.00000000 </v>
   <v>      -0.00000000      -0.00000000       0.00000000 </v>
   <v>       0.00000000      -0.00000000       0.00000000 </v>
  </varray>
  <varray name="stress" >
   <v>    -160.08035948      14.70107444      11.33108387 </v>
   <v>      14.70107444    -170.76832474       7.93752933 </v>
   <v>      11.33108387       7.93752933    -174.94863328 </v>
  </varray>
  <energy>
   <i name="e_fr_energy">   -152.11690411 </i>
   <i name="e_wo_entrp">   -152.03979851 </i>
   <i name="e_0_energy">     -0.15421120 </i>
  </energy>
  <time name="totalsc">   30.61   30.67</time>
 </calculation>
 <calculation>
  <scstep>
   <time name="dav">    0.70    0.70</time>
   <time name="total">    0.79    0.79</time>
   <energy>
    <i name="alphaZ">    472.16251860 </i>
    <i name="ewald">  -4826.46361497 </i>
    <i name="hartreedc">   -968.37440211 </i>
    <i name="XCdc">   -771.06639012 </i>
    <i name="pawpsdc">   6852.08041525 </i>
    <i name="pawaedc">  -6039.95570547 </i>
    <i name="eentropy">     -0.09993713 </i>
    <i name="bandstr">    420.94753984 </i>
    <i name="atom">   4687.48422623 </i>
    <i name="e_fr_energy">   -173.28534989 </i>
    <i name="e_wo_entrp">   -173.18541276 </i>
    <i name="e_0_energy">   -173.23538132 </i>
   </energy>
  </scstep>
  <scstep>
   <time name="dav">    1.18    1.18</time>
   <time name="total">    1.27    1.27</time>
   <energy>
    <i name="e_fr_energy">   -380.30776513 </i>
    <i name="e_wo_entrp">   -380.24162920 </i>
    <i name="e_0_energy">   -380.27469716 </i>
   </energy>
  </scstep>
  <scstep>
   <time name="dav">    1.03    1.03</time>
   <time name="total">    1.12    1.13</time>
   <energy>
    <i name="e_fr_energy">   -259.07055127 </i>
    <i name="e_wo_entrp">   -258.97470037 </i>
    <i name="e_0_energy">   -259.02262582 </i>
   </energy>
  </scstep>
  <scstep>
   <time name="dav">    1.07    1.07</time>
   <time name="total">    1.16    1.16</time>
   <energy>
    <i name="e_fr_energy">   -160.65365045 </i>
    <i name="e_wo_entrp">   -160.53442928 </i>
    <i name="e_0_energy">   -160.59403986 </i>
   </energy>
  </scstep>
  <scstep>
   <time name="dav">    1.17    1.18</time>
   <time name="total">    1.26    1.27</time>
   <energy>
    <i name="e_fr_energy">   -155.23969957 </i>
    <i name="e_wo_entrp">   -155.12509615 </i>
    <i name="e_0_energy">   -155.18239786 </i>
   </energy>
  </scstep>
  <scstep>
   <time name="dav">    1.22    1.22</time>
   <time name="total">    1.31    1.31</time>
   <energy>
    <i name="e_fr_energy">   -159.70908503 </i>
    <i name="e_wo_entrp">   -159.54648457 </i>
    <i name="e_0_energy">   -159.62778480 </i>
   </energy>
  </scstep>
  <scstep>
   <time name="dav">    1.15    1.16</time>
   <time name="total">    1.25    1.25</time>
   <energy>
    <i name="e_fr_energy">   -155.16846588 </i>
    <i name="e_wo_entrp">   -155.01860042 </i>
    <i name="e_0_energy">   -155.09353315 </i>
   </energy>
  </scstep>
  <scstep>
   <time name="dav">    1.26    1.26</time>
   <time name="total">    1.35    1.35</time>
   <energy>
    <i name="e_fr_energy">   -155.68701162 </i>
    <i name="e_wo_entrp">   -155.60006420 </i>
    <i name="e_0_energy">   -155.64353791 </i>
   </energy>
  </scstep>
  <scstep>
   <time name="dav">    1.08    1.08</time>
   <time name="total">    1.17    1.17</time>
   <energy>
    <i name="e_fr_energy">   -155.62906139 </i>
    <i name="e_wo_entrp">   -155.53538268 </i>
    <i name="e_0_energy">   -155.58222203 </i>
   </energy>
  </scstep>
  <scstep>
   <time name="dav">    1.26    1.27</time>
   <time name="total">    1.35    1.36</time>
   <energy>
    <i name="e_fr_energy">   -155.11121412 </i>
    <i name="e_wo_entrp">   -155.01311236 </i>
    <i name="e_0_energy">   -155.06216324 </i>
   </energy>
  </scstep>
  <scstep>
   <time name="dav">    1.25    1.25</time>
   <time name="total">    1.34    1.34</time>
   <energy>
    <i name="e_fr_energy">   -154.74169963 </i>
    <i name="e_wo_entrp">   -154.61771001 </i>
    <i name="e_0_energy">   -154.67970482 </i>
   </energy>
  </scstep>
  <scstep>
   <time name="dav">    1.07    1.07</time>
   <time name="total">    1.16    1.16</time>
   <energy>
    <i name="e_fr_energy">   -154.74251084 </i>
    <i name="e_wo_entrp">   -154.61052661 </i>
    <i name="e_0_energy">   -154.67651872 </i>
   </energy>
  </scstep>
  <scstep>
   <time name="dav">    1.15    1.15</time>
   <time name="total">    1.24    1.25</time>
   <energy>
    <i name="e_fr_energy">   -154.74782980 </i>
    <i name="e_wo_entrp">   -154.61334962 </i>
    <i name="e_0_energy">   -154.68058971 </i>
   </energy>
  </scstep>
  <scstep>
   <time name="dav">    1.12    1.13</time>
   <time name="total">    1.22    1.22</time>
   <energy>
    <i name="e_fr_energy">   -154.74900246 </i>
    <i name="e_wo_entrp">   -154.61514215 </i>
    <i name="e_0_energy">   -154.68207231 </i>
   </energy>
  </scstep>
  <scstep>
   <time name="dav">    1.20    1.21</time>
   <time name="total">    1.30    1.30</time>
   <energy>
    <i name="e_fr_energy">   -154.78690531 </i>
    <i name="e_wo_entrp">   -154.65614011 </i>
    <i name="e_0_energy">   -154.72152271 </i>
   </energy>
  </scstep>
  <scstep>
   <time name="dav">    1.25    1.25</time>
   <time name="total">    1.34    1.34</time>
   <energy>
    <i name="e_fr_energy">   -154.79286862 </i>
    <i name="e_wo_entrp">   -154.66366306 </i>
    <i name="e_0_energy">   -154.72826584 </i>
   </energy>
  </scstep>
  <scstep>
   <time name="dav">    1.22    1.22</time>
   <time name="total">    1.31    1.31</time>
   <energy>
    <i name="e_fr_energy">   -154.79611484 </i>
    <i name="e_wo_entrp">   -154.66424406 </i>
    <i name="e_0_energy">   -154.73017945 </i>
   </energy>
  </scstep>
  <scstep>
   <time name="dav">    1.17    1.18</time>
   <time name="total">    1.27    1.27</time>
   <energy>
    <i name="e_fr_energy">   -154.79466822 </i>
    <i name="e_wo_entrp">   -154.66359796 </i>
    <i name="e_0_energy">   -154.72913309 </i>
   </energy>
  </scstep>
  <scstep>
   <time name="dav">    1.16    1.16</time>
   <time name="total">    1.26    1.26</time>
   <energy>
    <i name="e_fr_energy">   -154.79304589 </i>
    <i name="e_wo_entrp">   -154.66047883 </i>
    <i name="e_0_energy">   -154.72676236 </i>
   </energy>
  </scstep>
  <scstep>
   <time name="dav">    1.20    1.20</time>
   <time name="total">    1.30    1.30</time>
   <energy>
    <i name="e_fr_energy">   -154.79175766 </i>
    <i name="e_wo_entrp">   -154.66005267 </i>
    <i name="e_0_energy">   -154.72590517 </i>
   </energy>
  </scstep>
  <scstep>
   <time name="dav">    1.27    1.28</time>
   <time name="total">    1.37    1.37</time>
   <energy>
    <i name="e_fr_energy">   -154.79051020 </i>
    <i name="e_wo_entrp">   -154.66061500 </i>
    <i name="e_0_energy">   -154.72556260 </i>
   </energy>
  </scstep>
  <scstep>
   <time name="dav">    1.24    1.24</time>
   <time name="total">    1.33    1.34</time>
   <energy>
    <i name="e_fr_energy">   -154.78967467 </i>
    <i name="e_wo_entrp">   -154.66192069 </i>
    <i name="e_0_energy">   -154.72579768 </i>
   </energy>
  </scstep>
  <scstep>
   <time name="dav">    1.09    1.09</time>
   <time name="total">    1.18    1.18</time>
   <energy>
    <i name="e_fr_energy">   -154.78963691 </i>
    <i name="e_wo_entrp">   -154.66226240 </i>
    <i name="e_0_energy">   -154.72594965 </i>
   </energy>
  </scstep>
  <scstep>
   <time name="dav">    0.74    0.74</time>
   <time name="total">    0.79    0.79</time>
   <energy>
    <i name="alphaZ">    472.16251860 </i>
    <i name="ewald">  -4826.46361497 </i>
    <i name="hartreedc">   -863.67731132 </i>
    <i name="XCdc">   -774.33285454 </i>
    <i name="pawpsdc">   7758.27124479 </i>
    <i name="pawaedc">  -6953.05182206 </i>
    <i name="eentropy">     -0.12729480 </i>
    <i name="bandstr">    344.94527010 </i>
    <i name="atom">   4687.48422623 </i>
    <i name="e_fr_energy">   -154.78963798 </i>
    <i name="e_wo_entrp">   -154.66234318 </i>
    <i name="e_0_energy">   -154.72599058 </i>
   </energy>
  </scstep>
  <structure>
   <crystal>
    <varray name="basis" >
     <v>       7.07389766      -0.01037960      -0.00800024 </v>
     <v>       2.40695662       6.65181899      -0.00800022 </v>
     <v>       2.40695662       1.68609925       6.43458147 </v>
    </varray>
    <i name="volume">    303.12664017 </i>
    <varray name="rec_basis" >
     <v>       0.14124513      -0.05115688      -0.03942996 </v>
     <v>       0.00017583       0.15022377      -0.03942998 </v>
     <v>       0.00017583       0.00012317       0.15531222 </v>
    </varray>
   </crystal>
   <varray name="positions" >
    <v>       0.50000000       0.50000000      -0.00000000 </v>
    <v>       0.00000000       0.50000000       0.50000000 </v>
    <v>       0.50000000       0.00000000       0.50000000 </v>
    <v>       0.00000000       0.00000000      -0.00000000 </v>
    <v>       0.21803046       0.74119898       0.21803046 </v>
    <v>       0.21803046       0.21803046       0.74119898 </v>
    <v>       0.74119898       0.21803046       0.21803046 </v>
    <v>       0.78196954       0.25880102       0.78196954 </v>
    <v>       0.78196954       0.78196954       0.25880102 </v>
    <v>       0.25880102       0.78196954       0.78196954 </v>
    <v>       0.50000000       0.50000000       0.50000000 </v>
    <v>       0.62137802       0.62137802       0.62137802 </v>
    <v>       0.37862198       0.37862198       0.37862198 </v>
    <v>       0.13158868       0.13158868       0.13158868 </v>
    <v>       0.86841132       0.86841132       0.86841132 </v>
    <v>       0.74833278       0.74833278       0.74833278 </v>
    <v>       0.25166722       0.25166722       0.25166722 </v>
    <v>       0.00000000       0.00000000       0.50000000 </v>
    <v>       0.50000000       0.00000000      -0.00000000 </v>
    <v>       0.00000000       0.50000000      -0.00000000 </v>
   </varray>
  </structure>
  <varray name="forces" >
   <v>       0.00000000      -0.00000000      -0.00000000 </v>
   <v>       0.00000000      -0.00000000       0.00000000 </v>
   <v>       0.00000000      -0.00000000       0.00000000 </v>
   <v>       0.00000000      -0.00000000      -0.00000000 </v>
   <v>       0.34106407      -0.10103693       0.27366874 </v>
   <v>       0.34106407       0.23891900      -0.16739397 </v>
   <v>       0.02156270       0.35506088       0.27366875 </v>
   <v>      -0.34106407       0.10103693      -0.27366874 </v>
   <v>      -0.34106407      -0.23891900       0.16739397 </v>
   <v>      -0.02156270      -0.35506088      -0.27366875 </v>
   <v>       0.00000000      -0.00000000       0.00000000 </v>
   <v>      -0.09547359      -0.06688027      -0.05154902 </v>
   <v>       0.09547359       0.06688027       0.05154902 </v>
   <v>       0.03957485       0.02772260       0.02136763 </v>
   <v>      -0.03957485      -0.02772260      -0.02136763 </v>
   <v>      -0.22236638      -0.15577003      -0.12006219 </v>
   <v>       0.22236638       0.15577003       0.12006219 </v>
   <v>       0.00000000      -0.00000000      -0.00000000 </v>
   <v>       0.00000000      -0.00000000       0.00000000 </v>
   <v>       0.00000000      -0.00000000       0.00000000 </v>
  </varray>
  <varray name="stress" >
   <v>      -3.41039281      10.83580244       8.35186468 </v>
   <v>      10.83580244     -11.28823008       5.85056895 </v>
   <v>       8.35186468       5.85056895     -14.36941008 </v>
  </varray>
  <energy>
   <i name="e_fr_energy">   -154.78963798 </i>
   <i name="e_wo_entrp">   -154.72599058 </i>
   <i name="e_0_energy">     -0.12729480 </i>
  </energy>
  <time name="totalsc">   30.97   31.01</time>
 </calculation>
 <calculation>
  <scstep>
   <time name="dav">    0.75    0.75</time>
   <time name="total">    0.84    0.85</time>
   <energy>
    <i name="alphaZ">    474.29124548 </i>
    <i name="ewald">  -4833.48620608 </i>
    <i name="hartreedc">   -865.18020588 </i>
    <i name="XCdc">   -774.07837784 </i>
    <i name="pawpsdc">   7758.30721349 </i>
    <i name="pawaedc">  -6953.09098314 </i>
    <i name="eentropy">     -0.13661989 </i>
    <i name="bandstr">    351.07838537 </i>
    <i name="atom">   4687.48422623 </i>
    <i name="e_fr_energy">   -154.81132227 </i>
    <i name="e_wo_entrp">   -154.67470239 </i>
    <i name="e_0_energy">   -154.74301233 </i>
   </energy>
  </scstep>
  <scstep>
   <time name="dav">    1.29    1.29</time>
   <time name="total">    1.38    1.38</time>
   <energy>
    <i name="e_fr_energy">   -156.30964408 </i>
    <i name="e_wo_entrp">   -156.21651966 </i>
    <i name="e_0_energy">   -156.26308187 </i>
   </energy>
  </scstep>
  <scstep>
   <time name="dav">    1.27    1.27</time>
   <time name="total">    1.36    1.36</time>
   <energy>
    <i name="e_fr_energy">   -154.76538658 </i>
    <i name="e_wo_entrp">   -154.63691980 </i>
    <i name="e_0_energy">   -154.70115319 </i>
   </energy>
  </scstep>
  <scstep>
   <time name="dav">    1.07    1.07</time>
   <time name="total">    1.16    1.16</time>
   <energy>
    <i name="e_fr_energy">   -154.79501260 </i>
    <i name="e_wo_entrp">   -154.66635212 </i>
    <i name="e_0_energy">   -154.73068236 </i>
   </energy>
  </scstep>
  <scstep>
   <time name="dav">    1.09    1.09</time>
   <time name="total">    1.19    1.19</time>
   <energy>
    <i name="e_fr_energy">   -154.79316341 </i>
    <i name="e_wo_entrp">   -154.66439538 </i>
    <i name="e_0_energy">   -154.72877940 </i>
   </energy>
  </scstep>
  <scstep>
   <time name="dav">    1.09    1.09</time>
   <time name="total">    1.18    1.18</time>
   <energy>
    <i name="e_fr_energy">   -154.79226172 </i>
    <i name="e_wo_entrp">   -154.66471213 </i>
    <i name="e_0_energy">   -154.72848692 </i>
   </energy>
  </scstep>
  <scstep>
   <time name="dav">    1.27    1.27</time>
   <time name="total">    1.36    1.37</time>
   <energy>
    <i name="e_fr_energy">   -154.79143886 </i>
    <i name="e_wo_entrp">   -154.66493796 </i>
    <i name="e_0_energy">   -154.72818841 </i>
   </energy>
  </scstep>
  <scstep>
   <time name="dav">    1.07    1.08</time>
   <time name="total">    1.16    1.17</time>
   <energy>
    <i name="e_fr_energy">   -154.79141671 </i>
    <i name="e_wo_entrp">   -154.66461328 </i>
    <i name="e_0_energy">   -154.72801500 </i>
   </energy>
  </scstep>
  <scstep>
   <time name="dav">    1.07    1.07</time>
   <time name="total">    1.16    1.17</time>
   <energy>
    <i name="e_fr_energy">   -154.79135902 </i>
    <i name="e_wo_entrp">   -154.66467364 </i>
    <i name="e_0_energy">   -154.72801633 </i>
   </energy>
  </scstep>
  <scstep>
   <time name="dav">    1.04    1.04</time>
   <time name="total">    1.13    1.13</time>
   <energy>
    <i name="e_fr_energy">   -154.79132807 </i>
    <i name="e_wo_entrp">   -154.66467761 </i>
    <i name="e_0_energy">   -154.72800284 </i>
   </energy>
  </scstep>
  <scstep>
   <time name="dav">    1.08    1.08</time>
   <time name="total">    1.17    1.17</time>
   <energy>
    <i name="e_fr_energy">   -154.79131411 </i>
    <i name="e_wo_entrp">   -154.66487354 </i>
    <i name="e_0_energy">   -154.72809382 </i>
   </energy>
  </scstep>
  <scstep>
   <time name="dav">    1.01    1.01</time>
   <time name="total">    1.06    1.06</time>
   <energy>
    <i name="alphaZ">    474.29124548 </i>
    <i name="ewald">  -4833.48620608 </i>
    <i name="hartreedc">   -861.99764630 </i>
    <i name="XCdc">   -774.17038335 </i>
    <i name="pawpsdc">   7791.92872161 </i>
    <i name="pawaedc">  -6986.94178800 </i>
    <i name="eentropy">     -0.12629612 </i>
    <i name="bandstr">    348.22681818 </i>
    <i name="atom">   4687.48422623 </i>
    <i name="e_fr_energy">   -154.79130835 </i>
    <i name="e_wo_entrp">   -154.66501223 </i>
    <i name="e_0_energy">   -154.72816029 </i>
   </energy>
  </scstep>
  <structure>
   <crystal>
    <varray name="basis" >
     <v>       7.06346579      -0.01007467      -0.00776521 </v>
     <v>       2.40367929       6.64191060      -0.00776518 </v>
     <v>       2.40367929       1.68380344       6.42493986 </v>
    </varray>
    <i name="volume">    301.76613894 </i>
    <varray name="rec_basis" >
     <v>       0.14145706      -0.05123888      -0.03949316 </v>
     <v>       0.00017117       0.15045097      -0.03949318 </v>
     <v>       0.00017117       0.00011991       0.15554802 </v>
    </varray>
   </crystal>
   <varray name="positions" >
    <v>       0.50000000       0.50000000      -0.00000000 </v>
    <v>       0.00000000       0.50000000       0.50000000 </v>
    <v>       0.50000000       0.00000000       0.50000000 </v>
    <v>       0.00000000       0.00000000      -0.00000000 </v>
    <v>       0.21794404       0.74124208       0.21794404 </v>
    <v>       0.21794404       0.21794404       0.74124208 </v>
    <v>       0.74124208       0.21794404       0.21794404 </v>
    <v>       0.78205596       0.25875792       0.78205596 </v>
    <v>       0.78205596       0.78205596       0.25875792 </v>
    <v>       0.25875792       0.78205596       0.78205596 </v>
    <v>       0.50000000       0.50000000       0.50000000 </v>
    <v>       0.62141573       0.62141573       0.62141573 </v>
    <v>       0.37858427       0.37858427       0.37858427 </v>
    <v>       0.13156831       0.13156831       0.13156831 </v>
    <v>       0.86843169       0.86843169       0.86843169 </v>
    <v>       0.74833451       0.74833451       0.74833451 </v>
    <v>       0.25166549       0.25166549       0.25166549 </v>
    <v>       0.00000000       0.00000000       0.50000000 </v>
    <v>       0.50000000       0.00000000      -0.00000000 </v>
    <v>       0.00000000       0.50000000      -0.00000000 </v>
   </varray>
  </structure>
  <varray name="forces" >
   <v>       0.00000000       0.00000000      -0.00000000 </v>
   <v>       0.00000000      -0.00000000      -0.00000000 </v>
   <v>       0.00000000       0.00000000      -0.00000000 </v>
   <v>      -0.00000000      -0.00000000      -0.00000000 </v>
   <v>       0.35620947      -0.10176326       0.28483118 </v>
   <v>       0.35620947       0.24952851      -0.17093879 </v>
   <v>       0.02605431       0.36954315       0.28483118 </v>
   <v>      -0.35620947       0.10176326      -0.28483118 </v>
   <v>      -0.35620947      -0.24952851       0.17093879 </v>
   <v>      -0.02605431      -0.36954315      -0.28483118 </v>
   <v>       0.00000000       0.00000000      -0.00000000 </v>
   <v>      -0.11139895      -0.07803615      -0.06014759 </v>
   <v>       0.11139895       0.07803615       0.06014759 </v>
   <v>       0.04849602       0.03397198       0.02618444 </v>
   <v>      -0.04849602      -0.03397198      -0.02618444 </v>
   <v>      -0.21786860      -0.15261928      -0.11763370 </v>
   <v>       0.21786860       0.15261928       0.11763370 </v>
   <v>       0.00000000       0.00000000      -0.00000000 </v>
   <v>      -0.00000000      -0.00000000      -0.00000000 </v>
   <v>      -0.00000000      -0.00000000      -0.00000000 </v>
  </varray>
  <varray name="stress" >
   <v>       4.58614226      10.68691676       8.23710870 </v>
   <v>      10.68691676      -3.18345221       5.77018184 </v>
   <v>       8.23710870       5.77018184      -6.22229482 </v>
  </varray>
  <energy>
   <i name="e_fr_energy">   -154.79130835 </i>
   <i name="e_wo_entrp">   -154.72816029 </i>
   <i name="e_0_energy">     -0.12629612 </i>
  </energy>
  <time name="totalsc">   15.66   15.69</time>
 </calculation>
 <calculation>
  <scstep>
   <time name="dav">    0.74    0.74</time>
   <time name="total">    0.83    0.83</time>
   <energy>
    <i name="alphaZ">    474.01003477 </i>
    <i name="ewald">  -4832.55982151 </i>
    <i name="hartreedc">   -861.78339138 </i>
    <i name="XCdc">   -774.20596275 </i>
    <i name="pawpsdc">   7792.39495400 </i>
    <i name="pawaedc">  -6987.41759498 </i>
    <i name="eentropy">     -0.12522751 </i>
    <i name="bandstr">    347.41104157 </i>
    <i name="atom">   4687.48422623 </i>
    <i name="e_fr_energy">   -154.79174156 </i>
    <i name="e_wo_entrp">   -154.66651405 </i>
    <i name="e_0_energy">   -154.72912780 </i>
   </energy>
  </scstep>
  <scstep>
   <time name="dav">    1.26    1.26</time>
   <time name="total">    1.35    1.35</time>
   <energy>
    <i name="e_fr_energy">   -154.81961500 </i>
    <i name="e_wo_entrp">   -154.67875138 </i>
    <i name="e_0_energy">   -154.74918319 </i>
   </energy>
  </scstep>
  <scstep>
   <time name="dav">    1.24    1.25</time>
   <time name="total">    1.33    1.34</time>
   <energy>
    <i name="e_fr_energy">   -154.79150526 </i>
    <i name="e_wo_entrp">   -154.66665424 </i>
    <i name="e_0_energy">   -154.72907975 </i>
   </energy>
  </scstep>
  <scstep>
   <time name="dav">    1.02    1.02</time>
   <time name="total">    1.11    1.11</time>
   <energy>
    <i name="e_fr_energy">   -154.79151591 </i>
    <i name="e_wo_entrp">   -154.66519799 </i>
    <i name="e_0_energy">   -154.72835695 </i>
   </energy>
  </scstep>
  <scstep>
   <time name="dav">    1.04    1.04</time>
   <time name="total">    1.12    1.12</time>
   <energy>
    <i name="e_fr_energy">   -154.79141339 </i>
    <i name="e_wo_entrp">   -154.66492795 </i>
    <i name="e_0_energy">   -154.72817067 </i>
   </energy>
  </scstep>
  <scstep>
   <time name="dav">    0.99    0.99</time>
   <time name="total">    1.07    1.08</time>
   <energy>
    <i name="e_fr_energy">   -154.79140754 </i>
    <i name="e_wo_entrp">   -154.66494276 </i>
    <i name="e_0_energy">   -154.72817515 </i>
   </energy>
  </scstep>
  <scstep>
   <time name="dav">    0.65    0.65</time>
   <time name="total">    0.70    0.70</time>
   <energy>
    <i name="alphaZ">    474.01003477 </i>
    <i name="ewald">  -4832.55982151 </i>
    <i name="hartreedc">   -862.17847859 </i>
    <i name="XCdc">   -774.19596861 </i>
    <i name="pawpsdc">   7788.48300855 </i>
    <i name="pawaedc">  -6983.48760712 </i>
    <i name="eentropy">     -0.12643603 </i>
    <i name="bandstr">    347.77963962 </i>
    <i name="atom">   4687.48422623 </i>
    <i name="e_fr_energy">   -154.79140269 </i>
    <i name="e_wo_entrp">   -154.66496667 </i>
    <i name="e_0_energy">   -154.72818468 </i>
   </energy>
  </scstep>
  <structure>
   <crystal>
    <varray name="basis" >
     <v>       7.06484028      -0.01011484      -0.00779617 </v>
     <v>       2.40411111       6.64321613      -0.00779615 </v>
     <v>       2.40411111       1.68410594       6.42621023 </v>
    </varray>
    <i name="volume">    301.94516441 </i>
    <varray name="rec_basis" >
     <v>       0.14142910      -0.05122806      -0.03948482 </v>
     <v>       0.00017179       0.15042099      -0.03948484 </v>
     <v>       0.00017179       0.00012034       0.15551691 </v>
    </varray>
   </crystal>
   <varray name="positions" >
    <v>       0.50000000       0.50000000      -0.00000000 </v>
    <v>       0.00000000       0.50000000       0.50000000 </v>
    <v>       0.50000000       0.00000000       0.50000000 </v>
    <v>       0.00000000       0.00000000      -0.00000000 </v>
    <v>       0.21795544       0.74123639       0.21795544 </v>
    <v>       0.21795544       0.21795544       0.74123639 </v>
    <v>       0.74123639       0.21795544       0.21795544 </v>
    <v>       0.78204456       0.25876361       0.78204456 </v>
    <v>       0.78204456       0.78204456       0.25876361 </v>
    <v>       0.25876361       0.78204456       0.78204456 </v>
    <v>       0.50000000       0.50000000       0.50000000 </v>
    <v>       0.62141075       0.62141075       0.62141075 </v>
    <v>       0.37858925       0.37858925       0.37858925 </v>
    <v>       0.13157100       0.13157100       0.13157100 </v>
    <v>       0.86842900       0.86842900       0.86842900 </v>
    <v>       0.74833428       0.74833428       0.74833428 </v>
    <v>       0.25166572       0.25166572       0.25166572 </v>
    <v>       0.00000000       0.00000000       0.50000000 </v>
    <v>       0.50000000       0.00000000      -0.00000000 </v>
    <v>       0.00000000       0.50000000      -0.00000000 </v>
   </varray>
  </structure>
  <varray name="forces" >
   <v>       0.00000000       0.00000000      -0.00000000 </v>
   <v>       0.00000000       0.00000000      -0.00000000 </v>
   <v>       0.00000000       0.00000000      -0.00000000 </v>
   <v>       0.00000000       0.00000000      -0.00000000 </v>
   <v>       0.35458500      -0.10031002       0.28327176 </v>
   <v>       0.35458500       0.24839056      -0.16913637 </v>
   <v>       0.02686513       0.36751995       0.28327176 </v>
   <v>      -0.35458500       0.10031002      -0.28327176 </v>
   <v>      -0.35458500      -0.24839056       0.16913637 </v>
   <v>      -0.02686513      -0.36751995      -0.28327176 </v>
   <v>       0.00000000       0.00000000      -0.00000000 </v>
   <v>      -0.11059510      -0.07747305      -0.05971357 </v>
   <v>       0.11059510       0.07747305       0.05971357 </v>
   <v>       0.04603030       0.03224471       0.02485312 </v>
   <v>      -0.04603030      -0.03224471      -0.02485312 </v>
   <v>      -0.21735564      -0.15225995      -0.11735675 </v>
   <v>       0.21735564       0.15225995       0.11735675 </v>
   <v>       0.00000000       0.00000000      -0.00000000 </v>
   <v>       0.00000000       0.00000000      -0.00000000 </v>
   <v>       0.00000000       0.00000000      -0.00000000 </v>
  </varray>
  <varray name="stress" >
   <v>       4.47249640      10.79371993       8.31942892 </v>
   <v>      10.79371993      -3.37474603       5.82784801 </v>
   <v>       8.31942892       5.82784801      -6.44395832 </v>
  </varray>
  <energy>
   <i name="e_fr_energy">   -154.79140269 </i>
   <i name="e_wo_entrp">   -154.72818468 </i>
   <i name="e_0_energy">     -0.12643603 </i>
  </energy>
  <time name="totalsc">    9.00    9.01</time>
 </calculation>
 <calculation>
  <scstep>
   <time name="dav">    0.73    0.73</time>
   <time name="total">    0.82    0.82</time>
   <energy>
    <i name="alphaZ">    473.08507386 </i>
    <i name="ewald">  -4829.50999719 </i>
    <i name="hartreedc">   -861.53759006 </i>
    <i name="XCdc">   -774.30562987 </i>
    <i name="pawpsdc">   7788.32149594 </i>
    <i name="pawaedc">  -6983.32107201 </i>
    <i name="eentropy">     -0.12275119 </i>
    <i name="bandstr">    345.11149446 </i>
    <i name="atom">   4687.48422623 </i>
    <i name="e_fr_energy">   -154.79474984 </i>
    <i name="e_wo_entrp">   -154.67199864 </i>
    <i name="e_0_energy">   -154.73337424 </i>
   </energy>
  </scstep>
  <scstep>
   <time name="dav">    1.27    1.27</time>
   <time name="total">    1.36    1.36</time>
   <energy>
    <i name="e_fr_energy">   -155.12396024 </i>
    <i name="e_wo_entrp">   -154.96285031 </i>
    <i name="e_0_energy">   -155.04340527 </i>
   </energy>
  </scstep>
  <scstep>
   <time name="dav">    1.26    1.26</time>
   <time name="total">    1.35    1.35</time>
   <energy>
    <i name="e_fr_energy">   -154.79395675 </i>
    <i name="e_wo_entrp">   -154.67319190 </i>
    <i name="e_0_energy">   -154.73357432 </i>
   </energy>
  </scstep>
  <scstep>
   <time name="dav">    1.04    1.04</time>
   <time name="total">    1.13    1.13</time>
   <energy>
    <i name="e_fr_energy">   -154.79237715 </i>
    <i name="e_wo_entrp">   -154.66602441 </i>
    <i name="e_0_energy">   -154.72920078 </i>
   </energy>
  </scstep>
  <scstep>
   <time name="dav">    1.08    1.08</time>
   <time name="total">    1.17    1.17</time>
   <energy>
    <i name="e_fr_energy">   -154.79114917 </i>
    <i name="e_wo_entrp">   -154.66433575 </i>
    <i name="e_0_energy">   -154.72774246 </i>
   </energy>
  </scstep>
  <scstep>
   <time name="dav">    1.09    1.09</time>
   <time name="total">    1.18    1.18</time>
   <energy>
    <i name="e_fr_energy">   -154.79108760 </i>
    <i name="e_wo_entrp">   -154.66434841 </i>
    <i name="e_0_energy">   -154.72771800 </i>
   </energy>
  </scstep>
  <scstep>
   <time name="dav">    1.04    1.04</time>
   <time name="total">    1.13    1.13</time>
   <energy>
    <i name="e_fr_energy">   -154.79103010 </i>
    <i name="e_wo_entrp">   -154.66439872 </i>
    <i name="e_0_energy">   -154.72771441 </i>
   </energy>
  </scstep>
  <scstep>
   <time name="dav">    1.11    1.11</time>
   <time name="total">    1.20    1.20</time>
   <energy>
    <i name="e_fr_energy">   -154.79103729 </i>
    <i name="e_wo_entrp">   -154.66439381 </i>
    <i name="e_0_energy">   -154.72771555 </i>
   </energy>
  </scstep>
  <scstep>
   <time name="dav">    1.06    1.06</time>
   <time name="total">    1.15    1.15</time>
   <energy>
    <i name="e_fr_energy">   -154.79102611 </i>
    <i name="e_wo_entrp">   -154.66414131 </i>
    <i name="e_0_energy">   -154.72758371 </i>
   </energy>
  </scstep>
  <scstep>
   <time name="dav">    0.69    0.70</time>
   <time name="total">    0.74    0.75</time>
   <energy>
    <i name="alphaZ">    473.08507386 </i>
    <i name="ewald">  -4829.50999719 </i>
    <i name="hartreedc">   -862.92260118 </i>
    <i name="XCdc">   -774.26538009 </i>
    <i name="pawpsdc">   7773.40235879 </i>
    <i name="pawaedc">  -6968.29822661 </i>
    <i name="eentropy">     -0.12685197 </i>
    <i name="bandstr">    346.36037066 </i>
    <i name="atom">   4687.48422623 </i>
    <i name="e_fr_energy">   -154.79102750 </i>
    <i name="e_wo_entrp">   -154.66417554 </i>
    <i name="e_0_energy">   -154.72760152 </i>
   </energy>
  </scstep>
  <structure>
   <crystal>
    <varray name="basis" >
     <v>       7.06936897      -0.01024722      -0.00789821 </v>
     <v>       2.40553386       6.64751756      -0.00789818 </v>
     <v>       2.40553386       1.68510259       6.43039585 </v>
    </varray>
    <i name="volume">    302.53551800 </i>
    <varray name="rec_basis" >
     <v>       0.14133705      -0.05119245      -0.03945737 </v>
     <v>       0.00017381       0.15032232      -0.03945739 </v>
     <v>       0.00017381       0.00012176       0.15541449 </v>
    </varray>
   </crystal>
   <varray name="positions" >
    <v>       0.50000000       0.50000000      -0.00000000 </v>
    <v>       0.00000000       0.50000000       0.50000000 </v>
    <v>       0.50000000       0.00000000       0.50000000 </v>
    <v>       0.00000000       0.00000000      -0.00000000 </v>
    <v>       0.21799300       0.74121766       0.21799300 </v>
    <v>       0.21799300       0.21799300       0.74121766 </v>
    <v>       0.74121766       0.21799300       0.21799300 </v>
    <v>       0.78200700       0.25878234       0.78200700 </v>
    <v>       0.78200700       0.78200700       0.25878234 </v>
    <v>       0.25878234       0.78200700       0.78200700 </v>
    <v>       0.50000000       0.50000000       0.50000000 </v>
    <v>       0.62139436       0.62139436       0.62139436 </v>
    <v>       0.37860564       0.37860564       0.37860564 </v>
    <v>       0.13157986       0.13157986       0.13157986 </v>
    <v>       0.86842014       0.86842014       0.86842014 </v>
    <v>       0.74833353       0.74833353       0.74833353 </v>
    <v>       0.25166647       0.25166647       0.25166647 </v>
    <v>       0.00000000       0.00000000       0.50000000 </v>
    <v>       0.50000000       0.00000000      -0.00000000 </v>
    <v>       0.00000000       0.50000000      -0.00000000 </v>
   </varray>
  </structure>
  <varray name="forces" >
   <v>       0.00000000      -0.00000000      -0.00000000 </v>
   <v>       0.00000000      -0.00000000      -0.00000000 </v>
   <v>       0.00000000      -0.00000000      -0.00000000 </v>
   <v>       0.00000000      -0.00000000      -0.00000000 </v>
   <v>       0.34756325      -0.10277203       0.27883358 </v>
   <v>       0.34756325       0.24347175      -0.17038706 </v>
   <v>       0.02215236       0.36176180       0.27883358 </v>
   <v>      -0.34756325       0.10277203      -0.27883358 </v>
   <v>      -0.34756325      -0.24347175       0.17038706 </v>
   <v>      -0.02215236      -0.36176180      -0.27883358 </v>
   <v>       0.00000000      -0.00000000      -0.00000000 </v>
   <v>      -0.10394145      -0.07281209      -0.05612106 </v>
   <v>       0.10394145       0.07281209       0.05612106 </v>
   <v>       0.04258280       0.02982971       0.02299171 </v>
   <v>      -0.04258280      -0.02982971      -0.02299171 </v>
   <v>      -0.22315544      -0.15632277      -0.12048823 </v>
   <v>       0.22315544       0.15632277       0.12048823 </v>
   <v>       0.00000000      -0.00000000      -0.00000000 </v>
   <v>       0.00000000      -0.00000000      -0.00000000 </v>
   <v>       0.00000000      -0.00000000      -0.00000000 </v>
  </varray>
  <varray name="stress" >
   <v>       0.50357918      10.87442562       8.38163410 </v>
   <v>      10.87442562      -7.40233786       5.87142306 </v>
   <v>       8.38163410       5.87142306     -10.49449970 </v>
  </varray>
  <energy>
   <i name="e_fr_energy">   -154.79102750 </i>
   <i name="e_wo_entrp">   -154.72760152 </i>
   <i name="e_0_energy">     -0.12685197 </i>
  </energy>
  <time name="totalsc">   12.72   12.74</time>
 </calculation>
 <calculation>
  <scstep>
   <time name="dav">    0.71    0.71</time>
   <time name="total">    0.80    0.80</time>
   <energy>
    <i name="alphaZ">    473.80849013 </i>
    <i name="ewald">  -4831.89568753 </i>
    <i name="hartreedc">   -863.44469985 </i>
    <i name="XCdc">   -774.17761783 </i>
    <i name="pawpsdc">   7772.82837090 </i>
    <i name="pawaedc">  -6967.71105541 </i>
    <i name="eentropy">     -0.12989517 </i>
    <i name="bandstr">    348.44420500 </i>
    <i name="atom">   4687.48422623 </i>
    <i name="e_fr_energy">   -154.79366354 </i>
    <i name="e_wo_entrp">   -154.66376837 </i>
    <i name="e_0_energy">   -154.72871595 </i>
   </energy>
  </scstep>
  <scstep>
   <time name="dav">    1.24    1.24</time>
   <time name="total">    1.33    1.33</time>
   <energy>
    <i name="e_fr_energy">   -154.97553610 </i>
    <i name="e_wo_entrp">   -154.87439654 </i>
    <i name="e_0_energy">   -154.92496632 </i>
   </energy>
  </scstep>
  <scstep>
   <time name="dav">    1.27    1.27</time>
   <time name="total">    1.36    1.36</time>
   <energy>
    <i name="e_fr_energy">   -154.78967330 </i>
    <i name="e_wo_entrp">   -154.66063059 </i>
    <i name="e_0_energy">   -154.72515194 </i>
   </energy>
  </scstep>
  <scstep>
   <time name="dav">    1.08    1.08</time>
   <time name="total">    1.17    1.17</time>
   <energy>
    <i name="e_fr_energy">   -154.79197757 </i>
    <i name="e_wo_entrp">   -154.66474313 </i>
    <i name="e_0_energy">   -154.72836035 </i>
   </energy>
  </scstep>
  <scstep>
   <time name="dav">    1.10    1.10</time>
   <time name="total">    1.19    1.20</time>
   <energy>
    <i name="e_fr_energy">   -154.79149536 </i>
    <i name="e_wo_entrp">   -154.66480121 </i>
    <i name="e_0_energy">   -154.72814829 </i>
   </energy>
  </scstep>
  <scstep>
   <time name="dav">    0.98    0.98</time>
   <time name="total">    1.07    1.07</time>
   <energy>
    <i name="e_fr_energy">   -154.79146469 </i>
    <i name="e_wo_entrp">   -154.66494070 </i>
    <i name="e_0_energy">   -154.72820269 </i>
   </energy>
  </scstep>
  <scstep>
   <time name="dav">    1.07    1.07</time>
   <time name="total">    1.16    1.16</time>
   <energy>
    <i name="e_fr_energy">   -154.79142201 </i>
    <i name="e_wo_entrp">   -154.66488040 </i>
    <i name="e_0_energy">   -154.72815121 </i>
   </energy>
  </scstep>
  <scstep>
   <time name="dav">    1.06    1.07</time>
   <time name="total">    1.16    1.16</time>
   <energy>
    <i name="e_fr_energy">   -154.79142406 </i>
    <i name="e_wo_entrp">   -154.66485607 </i>
    <i name="e_0_energy">   -154.72814007 </i>
   </energy>
  </scstep>
  <scstep>
   <time name="dav">    0.93    0.93</time>
   <time name="total">    1.02    1.02</time>
   <energy>
    <i name="e_fr_energy">   -154.79141368 </i>
    <i name="e_wo_entrp">   -154.66493540 </i>
    <i name="e_0_energy">   -154.72817454 </i>
   </energy>
  </scstep>
  <scstep>
   <time name="dav">    0.64    0.64</time>
   <time name="total">    0.69    0.69</time>
   <energy>
    <i name="alphaZ">    473.80849013 </i>
    <i name="ewald">  -4831.89568753 </i>
    <i name="hartreedc">   -862.37528595 </i>
    <i name="XCdc">   -774.20684405 </i>
    <i name="pawpsdc">   7784.09902480 </i>
    <i name="pawaedc">  -6979.05391643 </i>
    <i name="eentropy">     -0.12650169 </i>
    <i name="bandstr">    347.47508375 </i>
    <i name="atom">   4687.48422623 </i>
    <i name="e_fr_energy">   -154.79141073 </i>
    <i name="e_wo_entrp">   -154.66490904 </i>
    <i name="e_0_energy">   -154.72815988 </i>
   </energy>
  </scstep>
  <structure>
   <crystal>
    <varray name="basis" >
[...]
       <r>    5.5028    0.0001 </r>
       <r>    5.6093    0.0000 </r>
       <r>    5.6584    0.0000 </r>
       <r>    5.7984    0.0000 </r>
       <r>    5.8008    0.0000 </r>
       <r>    5.9287    0.0000 </r>
       <r>    6.0096    0.0000 </r>
       <r>    6.0296    0.0000 </r>
      </set>
      <set comment="kpoint 4">
       <r>   -0.3349    1.0000 </r>
       <r>    0.4426    1.0000 </r>
       <r>    1.4508    1.0000 </r>
       <r>    1.4508    1.0000 </r>
       <r>    1.8506    1.0000 </r>
       <r>    1.8506    1.0000 </r>
       <r>    1.9503    1.0000 </r>
       <r>    1.9929    1.0000 </r>
       <r>    1.9929    1.0000 </r>
       <r>    2.1262    1.0000 </r>
       <r>    2.1737    1.0000 </r>
       <r>    2.1737    1.0000 </r>
       <r>    2.2360    1.0000 </r>
       <r>    2.2360    1.0000 </r>
       <r>    2.4321    1.0000 </r>
       <r>    2.5439    1.0000 </r>
       <r>    2.5439    1.0000 </r>
       <r>    2.7220    1.0000 </r>
       <r>    2.7220    1.0000 </r>
       <r>    2.8706    1.0000 </r>
       <r>    2.9485    1.0000 </r>
       <r>    3.0048    1.0000 </r>
       <r>    3.0048    1.0000 </r>
       <r>    3.0239    1.0000 </r>
       <r>    3.0296    1.0000 </r>
       <r>    3.0296    1.0000 </r>
       <r>    3.2089    1.0000 </r>
       <r>    3.2089    1.0000 </r>
       <r>    3.3363    1.0000 </r>
       <r>    3.3662    1.0000 </r>
       <r>    3.4889    1.0000 </r>
       <r>    3.6106    1.0000 </r>
       <r>    3.6150    1.0000 </r>
       <r>    3.6150    1.0000 </r>
       <r>    3.6313    1.0000 </r>
       <r>    3.6313    1.0000 </r>
       <r>    3.8427    1.0000 </r>
       <r>    3.8427    1.0000 </r>
       <r>    4.0168    1.0000 </r>
       <r>    4.0168    1.0000 </r>
       <r>    4.1307    1.0000 </r>
       <r>    4.1364    1.0000 </r>
       <r>    4.3201    1.0000 </r>
       <r>    4.6710    1.0000 </r>
       <r>    4.7556    1.0000 </r>
       <r>    4.7556    1.0000 </r>
       <r>    4.8413    1.0000 </r>
       <r>    4.8413    1.0000 </r>
       <r>    4.8876    1.0000 </r>
       <r>    4.8876    1.0000 </r>
       <r>    4.9102    1.0000 </r>
       <r>    5.1079    0.9653 </r>
       <r>    5.1079    0.9653 </r>
       <r>    5.1939    0.7251 </r>
       <r>    5.3667    0.0326 </r>
       <r>    5.3667    0.0326 </r>
       <r>    5.4209    0.0045 </r>
       <r>    5.4209    0.0045 </r>
       <r>    5.4706    0.0005 </r>
       <r>    5.5473    0.0000 </r>
       <r>    5.5473    0.0000 </r>
       <r>    5.6495    0.0000 </r>
       <r>    5.8844    0.0000 </r>
       <r>    5.8844    0.0000 </r>
       <r>    5.9302    0.0000 </r>
       <r>    6.1341    0.0000 </r>
       <r>    6.1341    0.0000 </r>
       <r>    6.1707    0.0000 </r>
      </set>
     </set>
    </set>
   </array>
  </eigenvalues>
  <separator name="orbital magnetization" >
   <v name="MAGDIPOLOUT">      0.00000000      0.00000000      0.00000000</v>
  </separator>
  <dos>
   <i name="efermi">      5.23623878 </i>
   <total>
    <array>
     <dimension dim="1">gridpoints</dimension>
     <dimension dim="2">spin</dimension>
     <field>energy</field>
     <field>total</field>
     <field>integrated</field>
     <set>
      <set comment="spin 1">
       <r>    -2.1603     0.0000     0.0000 </r>
       <r>    -2.1292     0.0000     0.0000 </r>
       <r>    -2.0981     0.0000     0.0000 </r>
       <r>    -2.0670     0.0000     0.0000 </r>
       <r>    -2.0359     0.0000     0.0000 </r>
       <r>    -2.0048     0.0000     0.0000 </r>
       <r>    -1.9737     0.0000     0.0000 </r>
       <r>    -1.9426     0.0000     0.0000 </r>
       <r>    -1.9115     0.0000     0.0000 </r>
       <r>    -1.8804     0.0000     0.0000 </r>
       <r>    -1.8493     0.0000     0.0000 </r>
       <r>    -1.8182     0.0000     0.0000 </r>
       <r>    -1.7871     0.0000     0.0000 </r>
       <r>    -1.7559     0.0000     0.0000 </r>
       <r>    -1.7248     0.0000     0.0000 </r>
       <r>    -1.6937     0.0000     0.0000 </r>
       <r>    -1.6626     0.0000     0.0000 </r>
       <r>    -1.6315     0.0000     0.0000 </r>
       <r>    -1.6004     0.0000     0.0000 </r>
       <r>    -1.5693     0.0000     0.0000 </r>
       <r>    -1.5382     0.0000     0.0000 </r>
       <r>    -1.5071     0.0000     0.0000 </r>
       <r>    -1.4760     0.0000     0.0000 </r>
       <r>    -1.4449     0.0002     0.0000 </r>
       <r>    -1.4138     0.0011     0.0000 </r>
       <r>    -1.3827     0.0053     0.0002 </r>
       <r>    -1.3516     0.0207     0.0009 </r>
       <r>    -1.3205     0.0669     0.0029 </r>
       <r>    -1.2894     0.1784     0.0085 </r>
       <r>    -1.2583     0.3933     0.0207 </r>
       <r>    -1.2272     0.7167     0.0430 </r>
       <r>    -1.1961     1.0794     0.0766 </r>
       <r>    -1.1650     1.3439     0.1184 </r>
       <r>    -1.1339     1.3831     0.1614 </r>
       <r>    -1.1028     1.1766     0.1980 </r>
       <r>    -1.0717     0.8275     0.2237 </r>
       <r>    -1.0406     0.4810     0.2387 </r>
       <r>    -1.0095     0.2311     0.2459 </r>
       <r>    -0.9784     0.0918     0.2487 </r>
       <r>    -0.9473     0.0301     0.2497 </r>
       <r>    -0.9162     0.0082     0.2499 </r>
       <r>    -0.8851     0.0018     0.2500 </r>
       <r>    -0.8540     0.0003     0.2500 </r>
       <r>    -0.8229     0.0001     0.2500 </r>
       <r>    -0.7917     0.0000     0.2500 </r>
       <r>    -0.7606     0.0000     0.2500 </r>
       <r>    -0.7295     0.0000     0.2500 </r>
       <r>    -0.6984     0.0000     0.2500 </r>
       <r>    -0.6673     0.0000     0.2500 </r>
       <r>    -0.6362     0.0001     0.2500 </r>
       <r>    -0.6051     0.0005     0.2500 </r>
       <r>    -0.5740     0.0024     0.2501 </r>
       <r>    -0.5429     0.0102     0.2504 </r>
       <r>    -0.5118     0.0365     0.2515 </r>
       <r>    -0.4807     0.1079     0.2549 </r>
       <r>    -0.4496     0.2635     0.2631 </r>
       <r>    -0.4185     0.5320     0.2796 </r>
       <r>    -0.3874     0.8885     0.3073 </r>
       <r>    -0.3563     1.2307     0.3456 </r>
       <r>    -0.3252     1.4278     0.3900 </r>
       <r>    -0.2941     1.4389     0.4347 </r>
       <r>    -0.2630     1.4134     0.4787 </r>
       <r>    -0.2319     1.6738     0.5307 </r>
       <r>    -0.2008     2.5539     0.6102 </r>
       <r>    -0.1697     4.1478     0.7392 </r>
       <r>    -0.1386     6.1053     0.9291 </r>
       <r>    -0.1075     7.6807     1.1680 </r>
       <r>    -0.0764     8.1360     1.4210 </r>
       <r>    -0.0453     7.2589     1.6468 </r>
       <r>    -0.0142     5.5462     1.8193 </r>
       <r>     0.0169     3.8784     1.9399 </r>
       <r>     0.0480     2.9823     2.0327 </r>
       <r>     0.0791     3.0907     2.1288 </r>
       <r>     0.1102     3.9413     2.2514 </r>
       <r>     0.1413     5.0202     2.4076 </r>
       <r>     0.1725     5.8733     2.5902 </r>
       <r>     0.2036     6.2791     2.7855 </r>
       <r>     0.2347     6.1913     2.9781 </r>
       <r>     0.2658     5.6135     3.1527 </r>
       <r>     0.2969     4.6197     3.2964 </r>
       <r>     0.3280     3.4510     3.4037 </r>
       <r>     0.3591     2.4562     3.4801 </r>
       <r>     0.3902     1.8659     3.5382 </r>
       <r>     0.4213     1.6391     3.5891 </r>
       <r>     0.4524     1.5409     3.6371 </r>
       <r>     0.4835     1.3561     3.6792 </r>
       <r>     0.5146     1.0327     3.7114 </r>
       <r>     0.5457     0.6600     3.7319 </r>
       <r>     0.5768     0.3503     3.7428 </r>
       <r>     0.6079     0.1539     3.7476 </r>
       <r>     0.6390     0.0559     3.7493 </r>
       <r>     0.6701     0.0168     3.7498 </r>
       <r>     0.7012     0.0042     3.7500 </r>
       <r>     0.7323     0.0009     3.7500 </r>
       <r>     0.7634     0.0002     3.7500 </r>
       <r>     0.7945     0.0002     3.7500 </r>
       <r>     0.8256     0.0010     3.7500 </r>
       <r>     0.8567     0.0054     3.7502 </r>
       <r>     0.8878     0.0240     3.7509 </r>
       <r>     0.9189     0.0888     3.7537 </r>
       <r>     0.9500     0.2726     3.7622 </r>
       <r>     0.9811     0.6943     3.7838 </r>
       <r>     1.0122     1.4726     3.8296 </r>
       <r>     1.0433     2.6218     3.9111 </r>
       <r>     1.0744     3.9746     4.0348 </r>
       <r>     1.1055     5.2657     4.1985 </r>
       <r>     1.1367     6.3507     4.3961 </r>
       <r>     1.1678     7.3243     4.6239 </r>
       <r>     1.1989     8.3630     4.8840 </r>
       <r>     1.2300     9.4513     5.1780 </r>
       <r>     1.2611    10.3109     5.4987 </r>
       <r>     1.2922    10.6326     5.8294 </r>
       <r>     1.3233    10.3886     6.1525 </r>
       <r>     1.3544     9.9060     6.4606 </r>
       <r>     1.3855     9.6062     6.7594 </r>
       <r>     1.4166     9.6880     7.0607 </r>
       <r>     1.4477    10.0970     7.3748 </r>
       <r>     1.4788    10.7240     7.7083 </r>
       <r>     1.5099    11.4848     8.0655 </r>
       <r>     1.5410    12.2198     8.4456 </r>
       <r>     1.5721    12.6965     8.8405 </r>
       <r>     1.6032    12.7785     9.2379 </r>
       <r>     1.6343    12.4910     9.6265 </r>
       <r>     1.6654    11.9040     9.9967 </r>
       <r>     1.6965    11.0781    10.3413 </r>
       <r>     1.7276    10.1916    10.6583 </r>
       <r>     1.7587     9.6756    10.9592 </r>
       <r>     1.7898    10.1710    11.2756 </r>
       <r>     1.8209    12.2536    11.6567 </r>
       <r>     1.8520    16.0122    12.1547 </r>
       <r>     1.8831    20.7672    12.8006 </r>
       <r>     1.9142    25.2441    13.5858 </r>
       <r>     1.9453    28.1830    14.4624 </r>
       <r>     1.9764    29.0326    15.3654 </r>
       <r>     2.0075    28.3296    16.2465 </r>
       <r>     2.0386    27.4888    17.1015 </r>
       <r>     2.0697    27.9662    17.9714 </r>
       <r>     2.1009    30.2602    18.9126 </r>
       <r>     2.1320    33.5695    19.9567 </r>
       <r>     2.1631    36.4606    21.0907 </r>
       <r>     2.1942    37.9036    22.2696 </r>
       <r>     2.2253    37.6851    23.4418 </r>
       <r>     2.2564    35.9931    24.5613 </r>
       <r>     2.2875    32.9233    25.5853 </r>
       <r>     2.3186    28.5702    26.4739 </r>
       <r>     2.3497    23.4737    27.2040 </r>
       <r>     2.3808    18.7359    27.7868 </r>
       <r>     2.4119    15.5700    28.2711 </r>
       <r>     2.4430    14.6488    28.7267 </r>
       <r>     2.4741    15.7346    29.2161 </r>
       <r>     2.5052    17.8222    29.7704 </r>
       <r>     2.5363    19.7270    30.3840 </r>
       <r>     2.5674    20.7645    31.0298 </r>
       <r>     2.5985    21.0160    31.6835 </r>
       <r>     2.6296    20.9530    32.3352 </r>
       <r>     2.6607    20.8343    32.9832 </r>
       <r>     2.6918    20.5680    33.6229 </r>
       <r>     2.7229    20.1670    34.2502 </r>
       <r>     2.7540    20.1226    34.8761 </r>
       <r>     2.7851    21.0511    35.5308 </r>
       <r>     2.8162    22.9314    36.2441 </r>
       <r>     2.8473    24.9474    37.0200 </r>
       <r>     2.8784    26.3401    37.8393 </r>
       <r>     2.9095    27.3823    38.6909 </r>
       <r>     2.9406    29.2818    39.6017 </r>
       <r>     2.9717    32.9667    40.6271 </r>
       <r>     3.0028    37.9830    41.8085 </r>
       <r>     3.0339    42.6532    43.1351 </r>
       <r>     3.0651    45.3249    44.5449 </r>
       <r>     3.0962    45.4499    45.9585 </r>
       <r>     3.1273    43.5889    47.3143 </r>
       <r>     3.1584    40.6831    48.5796 </r>
       <r>     3.1895    37.4937    49.7458 </r>
       <r>     3.2206    34.5276    50.8197 </r>
       <r>     3.2517    32.1306    51.8191 </r>
       <r>     3.2828    30.4907    52.7675 </r>
       <r>     3.3139    29.5854    53.6877 </r>
       <r>     3.3450    29.1870    54.5955 </r>
       <r>     3.3761    29.0214    55.4981 </r>
       <r>     3.4072    29.0635    56.4021 </r>
       <r>     3.4383    29.7088    57.3261 </r>
       <r>     3.4694    31.5230    58.3066 </r>
       <r>     3.5005    34.6928    59.3857 </r>
       <r>     3.5316    38.7226    60.5901 </r>
       <r>     3.5627    42.7191    61.9188 </r>
       <r>     3.5938    45.9331    63.3474 </r>
       <r>     3.6249    47.9541    64.8390 </r>
       <r>     3.6560    48.4840    66.3470 </r>
       <r>     3.6871    47.2180    67.8156 </r>
       <r>     3.7182    44.1232    69.1880 </r>
       <r>     3.7493    39.6933    70.4226 </r>
       <r>     3.7804    34.7138    71.5023 </r>
       <r>     3.8115    29.7805    72.4285 </r>
       <r>     3.8426    25.1847    73.2119 </r>
       <r>     3.8737    21.2526    73.8729 </r>
       <r>     3.9048    18.5774    74.4507 </r>
       <r>     3.9359    17.7321    75.0022 </r>
       <r>     3.9670    18.7808    75.5864 </r>
       <r>     3.9981    21.1850    76.2453 </r>
       <r>     4.0293    24.1723    76.9971 </r>
       <r>     4.0604    27.0898    77.8397 </r>
       <r>     4.0915    29.4234    78.7549 </r>
       <r>     4.1226    30.6835    79.7092 </r>
       <r>     4.1537    30.4912    80.6576 </r>
       <r>     4.1848    28.8812    81.5559 </r>
       <r>     4.2159    26.4894    82.3798 </r>
       <r>     4.2470    24.2861    83.1352 </r>
       <r>     4.2781    22.9465    83.8489 </r>
       <r>     4.3092    22.4226    84.5463 </r>
       <r>     4.3403    22.1401    85.2349 </r>
       <r>     4.3714    21.5858    85.9063 </r>
       <r>     4.4025    20.7098    86.5505 </r>
       <r>     4.4336    19.9144    87.1699 </r>
       <r>     4.4647    19.8379    87.7869 </r>
       <r>     4.4958    21.0981    88.4431 </r>
       <r>     4.5269    23.9385    89.1877 </r>
       <r>     4.5580    27.8675    90.0544 </r>
       <r>     4.5891    31.6695    91.0395 </r>
       <r>     4.6202    33.9929    92.0967 </r>
       <r>     4.6513    34.1926    93.1602 </r>
       <r>     4.6824    32.8198    94.1811 </r>
       <r>     4.7135    31.3374    95.1557 </r>
       <r>     4.7446    31.1511    96.1246 </r>
       <r>     4.7757    32.6162    97.1391 </r>
       <r>     4.8068    34.7728    98.2207 </r>
       <r>     4.8379    35.9973    99.3403 </r>
       <r>     4.8690    35.0872   100.4316 </r>
       <r>     4.9001    32.0325   101.4279 </r>
       <r>     4.9312    27.9315   102.2967 </r>
       <r>     4.9623    24.1455   103.0477 </r>
       <r>     4.9934    21.4532   103.7150 </r>
       <r>     5.0246    19.8834   104.3334 </r>
       <r>     5.0557    19.1269   104.9283 </r>
       <r>     5.0868    18.9761   105.5185 </r>
       <r>     5.1179    19.4737   106.1242 </r>
       <r>     5.1490    20.7908   106.7709 </r>
       <r>     5.1801    22.9786   107.4856 </r>
       <r>     5.2112    25.7827   108.2875 </r>
       <r>     5.2423    28.6887   109.1798 </r>
       <r>     5.2734    31.1503   110.1487 </r>
       <r>     5.3045    32.7691   111.1679 </r>
       <r>     5.3356    33.3435   112.2050 </r>
       <r>     5.3667    32.9664   113.2304 </r>
       <r>     5.3978    32.2102   114.2322 </r>
       <r>     5.4289    32.0419   115.2288 </r>
       <r>     5.4600    33.2057   116.2616 </r>
       <r>     5.4911    35.4905   117.3655 </r>
       <r>     5.5222    37.6960   118.5380 </r>
       <r>     5.5533    38.5414   119.7367 </r>
       <r>     5.5844    37.7045   120.9094 </r>
       <r>     5.6155    35.9249   122.0268 </r>
       <r>     5.6466    34.1437   123.0888 </r>
       <r>     5.6777    32.7334   124.1069 </r>
       <r>     5.7088    31.5493   125.0882 </r>
       <r>     5.7399    30.3699   126.0328 </r>
       <r>     5.7710    29.0419   126.9361 </r>
       <r>     5.8021    27.4147   127.7888 </r>
       <r>     5.8332    25.4664   128.5809 </r>
       <r>     5.8643    23.4928   129.3116 </r>
       <r>     5.8954    21.9970   129.9958 </r>
       <r>     5.9265    21.3678   130.6604 </r>
       <r>     5.9576    21.6653   131.3342 </r>
       <r>     5.9888    22.5563   132.0358 </r>
       <r>     6.0199    23.3498   132.7620 </r>
       <r>     6.0510    23.2366   133.4848 </r>
       <r>     6.0821    21.6989   134.1597 </r>
       <r>     6.1132    18.7641   134.7433 </r>
       <r>     6.1443    14.9114   135.2071 </r>
       <r>     6.1754    10.8021   135.5431 </r>
       <r>     6.2065     7.0551   135.7625 </r>
       <r>     6.2376     4.1006   135.8901 </r>
       <r>     6.2687     2.0939   135.9552 </r>
       <r>     6.2998     0.9289   135.9841 </r>
       <r>     6.3309     0.3548   135.9951 </r>
       <r>     6.3620     0.1158   135.9987 </r>
       <r>     6.3931     0.0321   135.9997 </r>
       <r>     6.4242     0.0075   135.9999 </r>
       <r>     6.4553     0.0015   136.0000 </r>
       <r>     6.4864     0.0002   136.0000 </r>
       <r>     6.5175     0.0000   136.0000 </r>
       <r>     6.5486     0.0000   136.0000 </r>
       <r>     6.5797     0.0000   136.0000 </r>
       <r>     6.6108     0.0000   136.0000 </r>
       <r>     6.6419     0.0000   136.0000 </r>
       <r>     6.6730     0.0000   136.0000 </r>
       <r>     6.7041     0.0000   136.0000 </r>
       <r>     6.7352     0.0000   136.0000 </r>
       <r>     6.7663     0.0000   136.0000 </r>
       <r>     6.7974     0.0000   136.0000 </r>
       <r>     6.8285     0.0000   136.0000 </r>
       <r>     6.8596     0.0000   136.0000 </r>
       <r>     6.8907     0.0000   136.0000 </r>
       <r>     6.9218     0.0000   136.0000 </r>
       <r>     6.9530     0.0000   136.0000 </r>
       <r>     6.9841     0.0000   136.0000 </r>
       <r>     7.0152     0.0000   136.0000 </r>
       <r>     7.0463     0.0000   136.0000 </r>
       <r>     7.0774     0.0000   136.0000 </r>
       <r>     7.1085     0.0000   136.0000 </r>
       <r>     7.1396     0.0000   136.0000 </r>
       <r>     7.1707     0.0000   136.0000 </r>
      </set>
     </set>
    </array>
   </total>
  </dos>
 </calculation>
 <structure name="finalpos" >
  <crystal>
   <varray name="basis" >
    <v>       7.31351505       0.42849077       0.33026598 </v>
    <v>       2.90128328       6.72708429       0.33026599 </v>
    <v>       2.90128334       2.03238035       6.42122868 </v>
   </varray>
   <i name="volume">    298.93608259 </i>
   <varray name="rec_basis" >
    <v>       0.14225422      -0.05911501      -0.04556381 </v>
    <v>      -0.00695872       0.15389095      -0.04556382 </v>
    <v>      -0.00695872      -0.00487465       0.16042044 </v>
   </varray>
  </crystal>
  <varray name="positions" >
   <v>       0.50000000       0.50000000      -0.00000000 </v>
   <v>      -0.00000000       0.50000000       0.50000000 </v>
   <v>       0.50000000       0.00000000       0.50000000 </v>
   <v>      -0.00000000       0.00000000      -0.00000000 </v>
   <v>       0.28769576       0.76084142       0.28769576 </v>
   <v>       0.28769576       0.28769576       0.76084142 </v>
   <v>       0.76084142       0.28769576       0.28769576 </v>
   <v>       0.71230424       0.23915858       0.71230424 </v>
   <v>       0.71230424       0.71230424       0.23915858 </v>
   <v>       0.23915858       0.71230424       0.71230424 </v>
   <v>       0.50000000       0.50000000       0.50000000 </v>
   <v>       0.64164003       0.64164003       0.64164003 </v>
   <v>       0.35835997       0.35835997       0.35835997 </v>
   <v>       0.10670096       0.10670096       0.10670096 </v>
   <v>       0.89329904       0.89329904       0.89329904 </v>
   <v>       0.77343383       0.77343383       0.77343383 </v>
   <v>       0.22656617       0.22656617       0.22656617 </v>
   <v>      -0.00000000       0.00000000       0.50000000 </v>
   <v>       0.50000000       0.00000000      -0.00000000 </v>
   <v>      -0.00000000       0.50000000      -0.00000000 </v>
  </varray>
 </structure>
</modeling>
