unknown system                          
           1
     6.718815    0.000000    0.000000
     2.295402    6.314555    0.000000
     2.295402    1.607954    6.106398
   V    Fe
  17   3
Direct configuration=     1
   0.50000000  0.50000000  0.00000000
   0.00000000  0.50000000  0.50000000
   0.50000000  0.00000000  0.50000000
   0.00000000  0.00000000  0.00000000
   0.21466500  0.74290000  0.21466500
   0.21466500  0.21466500  0.74290000
   0.74290000  0.21466500  0.21466500
   0.78533500  0.25710000  0.78533500
   0.78533500  0.78533500  0.25710000
   0.25710000  0.78533500  0.78533500
   0.50000000  0.50000000  0.50000000
   0.62284000  0.62284000  0.62284000
   0.37716000  0.37716000  0.37716000
   0.13079900  0.13079900  0.13079900
   0.86920100  0.86920100  0.86920100
   0.74840000  0.74840000  0.74840000
   0.25160000  0.25160000  0.25160000
   0.00000000  0.00000000  0.50000000
   0.50000000  0.00000000  0.00000000
   0.00000000  0.50000000  0.00000000
unknown system                          
           1
     7.404145   -0.020033   -0.015441
     2.510709    6.965494   -0.015441
     2.510709    1.758779    6.739811
   V    Fe
  17   3
Direct configuration=     2
   0.50000000  0.50000000 -0.00000000
   0.00000000  0.50000000  0.50000000
   0.50000000  0.00000000  0.50000000
   0.00000000  0.00000000 -0.00000000
   0.22064375  0.73990209  0.22064375
   0.22064375  0.22064375  0.73990209
   0.73990209  0.22064375  0.22064375
   0.77935625  0.26009791  0.77935625
   0.77935625  0.77935625  0.26009791
   0.26009791  0.77935625  0.77935625
   0.50000000  0.50000000  0.50000000
   0.62023581  0.62023581  0.62023581
   0.37976419  0.37976419  0.37976419
   0.13220564  0.13220564  0.13220564
   0.86779436  0.86779436  0.86779436
   0.74828025  0.74828025  0.74828025
   0.25171975  0.25171975  0.25171975
   0.00000000  0.00000000  0.50000000
   0.50000000  0.00000000 -0.00000000
   0.00000000  0.50000000 -0.00000000
unknown system                          
           1
     7.073898   -0.010380   -0.008000
     2.406957    6.651819   -0.008000
     2.406957    1.686099    6.434581
   V    Fe
  17   3
Direct configuration=     3
   0.50000000  0.50000000 -0.00000000
   0.00000000  0.50000000  0.50000000
   0.50000000  0.00000000  0.50000000
   0.00000000  0.00000000 -0.00000000
   0.21803046  0.74119898  0.21803046
   0.21803046  0.21803046  0.74119898
   0.74119898  0.21803046  0.21803046
   0.78196954  0.25880102  0.78196954
   0.78196954  0.78196954  0.25880102
   0.25880102  0.78196954  0.78196954
   0.50000000  0.50000000  0.50000000
   0.62137802  0.62137802  0.62137802
   0.37862198  0.37862198  0.37862198
   0.13158868  0.13158868  0.13158868
   0.86841132  0.86841132  0.86841132
   0.74833278  0.74833278  0.74833278
   0.25166722  0.25166722  0.25166722
   0.00000000  0.00000000  0.50000000
   0.50000000  0.00000000 -0.00000000
   0.00000000  0.50000000 -0.00000000
unknown system                          
           1
     7.063466   -0.010075   -0.007765
     2.403679    6.641911   -0.007765
     2.403679    1.683803    6.424940
   V    Fe
  17   3
Direct configuration=     4
   0.50000000  0.50000000 -0.00000000
   0.00000000  0.50000000  0.50000000
   0.50000000  0.00000000  0.50000000
   0.00000000  0.00000000 -0.00000000
   0.21794404  0.74124208  0.21794404
   0.21794404  0.21794404  0.74124208
   0.74124208  0.21794404  0.21794404
   0.78205596  0.25875792  0.78205596
   0.78205596  0.78205596  0.25875792
   0.25875792  0.78205596  0.78205596
   0.50000000  0.50000000  0.50000000
   0.62141573  0.62141573  0.62141573
   0.37858427  0.37858427  0.37858427
   0.13156831  0.13156831  0.13156831
   0.86843169  0.86843169  0.86843169
   0.74833451  0.74833451  0.74833451
   0.25166549  0.25166549  0.25166549
   0.00000000  0.00000000  0.50000000
   0.50000000  0.00000000 -0.00000000
   0.00000000  0.50000000 -0.00000000
unknown system                          
           1
     7.064840   -0.010115   -0.007796
     2.404111    6.643216   -0.007796
     2.404111    1.684106    6.426210
   V    Fe
  17   3
Direct configuration=     5
   0.50000000  0.50000000 -0.00000000
   0.00000000  0.50000000  0.50000000
   0.50000000  0.00000000  0.50000000
   0.00000000  0.00000000 -0.00000000
   0.21795544  0.74123639  0.21795544
   0.21795544  0.21795544  0.74123639
   0.74123639  0.21795544  0.21795544
   0.78204456  0.25876361  0.78204456
   0.78204456  0.78204456  0.25876361
   0.25876361  0.78204456  0.78204456
   0.50000000  0.50000000  0.50000000
   0.62141075  0.62141075  0.62141075
   0.37858925  0.37858925  0.37858925
   0.13157100  0.13157100  0.13157100
   0.86842900  0.86842900  0.86842900
   0.74833428  0.74833428  0.74833428
   0.25166572  0.25166572  0.25166572
   0.00000000  0.00000000  0.50000000
   0.50000000  0.00000000 -0.00000000
   0.00000000  0.50000000 -0.00000000
unknown system                          
           1
     7.069369   -0.010247   -0.007898
     2.405534    6.647518   -0.007898
     2.405534    1.685103    6.430396
   V    Fe
  17   3
Direct configuration=     6
   0.50000000  0.50000000 -0.00000000
   0.00000000  0.50000000  0.50000000
   0.50000000  0.00000000  0.50000000
   0.00000000  0.00000000 -0.00000000
   0.21799300  0.74121766  0.21799300
   0.21799300  0.21799300  0.74121766
   0.74121766  0.21799300  0.21799300
   0.78200700  0.25878234  0.78200700
   0.78200700  0.78200700  0.25878234
   0.25878234  0.78200700  0.78200700
   0.50000000  0.50000000  0.50000000
   0.62139436  0.62139436  0.62139436
   0.37860564  0.37860564  0.37860564
   0.13157986  0.13157986  0.13157986
   0.86842014  0.86842014  0.86842014
   0.74833353  0.74833353  0.74833353
   0.25166647  0.25166647  0.25166647
   0.00000000  0.00000000  0.50000000
   0.50000000  0.00000000 -0.00000000
   0.00000000  0.50000000 -0.00000000
unknown system                          
           1
     7.065826   -0.010144   -0.007818
     2.404421    6.644152   -0.007818
     2.404421    1.684323    6.427121
   V    Fe
  17   3
Direct configuration=     7
   0.50000000  0.50000000 -0.00000000
   0.00000000  0.50000000  0.50000000
   0.50000000  0.00000000  0.50000000
   0.00000000  0.00000000 -0.00000000
   0.21796364  0.74123230  0.21796364
   0.21796364  0.21796364  0.74123230
   0.74123230  0.21796364  0.21796364
   0.78203636  0.25876770  0.78203636
   0.78203636  0.78203636  0.25876770
   0.25876770  0.78203636  0.78203636
   0.50000000  0.50000000  0.50000000
   0.62140718  0.62140718  0.62140718
   0.37859282  0.37859282  0.37859282
   0.13157293  0.13157293  0.13157293
   0.86842707  0.86842707  0.86842707
   0.74833412  0.74833412  0.74833412
   0.25166588  0.25166588  0.25166588
   0.00000000  0.00000000  0.50000000
   0.50000000  0.00000000 -0.00000000
   0.00000000  0.50000000 -0.00000000
unknown system                          
           1
     7.065482   -0.010134   -0.007811
     2.404313    6.643825   -0.007811
     2.404313    1.684247    6.426803
   V    Fe
  17   3
Direct configuration=     8
   0.50000000  0.50000000 -0.00000000
   0.00000000  0.50000000  0.50000000
   0.50000000  0.00000000  0.50000000
   0.00000000  0.00000000 -0.00000000
   0.21796078  0.74123372  0.21796078
   0.21796078  0.21796078  0.74123372
   0.74123372  0.21796078  0.21796078
   0.78203922  0.25876628  0.78203922
   0.78203922  0.78203922  0.25876628
   0.25876628  0.78203922  0.78203922
   0.50000000  0.50000000  0.50000000
   0.62140842  0.62140842  0.62140842
   0.37859158  0.37859158  0.37859158
   0.13157226  0.13157226  0.13157226
   0.86842774  0.86842774  0.86842774
   0.74833417  0.74833417  0.74833417
   0.25166583  0.25166583  0.25166583
   0.00000000  0.00000000  0.50000000
   0.50000000  0.00000000 -0.00000000
   0.00000000  0.50000000 -0.00000000
unknown system                          
           1
     7.065161   -0.010124   -0.007803
     2.404212    6.643521   -0.007803
     2.404212    1.684177    6.426507
   V    Fe
  17   3
Direct configuration=     9
   0.50000000  0.50000000 -0.00000000
   0.00000000  0.50000000  0.50000000
   0.50000000  0.00000000  0.50000000
   0.00000000  0.00000000 -0.00000000
   0.21795812  0.74123505  0.21795812
   0.21795812  0.21795812  0.74123505
   0.74123505  0.21795812  0.21795812
   0.78204188  0.25876495  0.78204188
   0.78204188  0.78204188  0.25876495
   0.25876495  0.78204188  0.78204188
   0.50000000  0.50000000  0.50000000
   0.62140958  0.62140958  0.62140958
   0.37859042  0.37859042  0.37859042
   0.13157163  0.13157163  0.13157163
   0.86842837  0.86842837  0.86842837
   0.74833423  0.74833423  0.74833423
   0.25166577  0.25166577  0.25166577
   0.00000000  0.00000000  0.50000000
   0.50000000  0.00000000 -0.00000000
   0.00000000  0.50000000 -0.00000000
unknown system                          
           1
     7.080852    0.020797    0.016030
     2.438634    6.647704    0.016030
     2.438634    1.708289    6.424483
   V    Fe
  17   3
Direct configuration=    10
   0.50000000  0.50000000 -0.00000000
   0.00000000  0.50000000  0.50000000
   0.50000000  0.00000000  0.50000000
   0.00000000  0.00000000 -0.00000000
   0.21991926  0.74007076  0.21991926
   0.21991926  0.21991926  0.74007076
   0.74007076  0.21991926  0.21991926
   0.78008074  0.25992924  0.78008074
   0.78008074  0.78008074  0.25992924
   0.25992924  0.78008074  0.78008074
   0.50000000  0.50000000  0.50000000
   0.62098665  0.62098665  0.62098665
   0.37901335  0.37901335  0.37901335
   0.13174760  0.13174760  0.13174760
   0.86825240  0.86825240  0.86825240
   0.74753556  0.74753556  0.74753556
   0.25246444  0.25246444  0.25246444
   0.00000000  0.00000000  0.50000000
   0.50000000  0.00000000 -0.00000000
   0.00000000  0.50000000 -0.00000000
unknown system                          
           1
     7.104895    0.068178    0.052549
     2.491377    6.654113    0.052549
     2.491377    1.745237    6.421381
   V    Fe
  17   3
Direct configuration=    11
   0.50000000  0.50000000 -0.00000000
   0.00000000  0.50000000  0.50000000
   0.50000000  0.00000000  0.50000000
   0.00000000  0.00000000 -0.00000000
   0.22292074  0.73826391  0.22292074
   0.22292074  0.22292074  0.73826391
   0.73826391  0.22292074  0.22292074
   0.77707926  0.26173609  0.77707926
   0.77707926  0.77707926  0.26173609
   0.26173609  0.77707926  0.77707926
   0.50000000  0.50000000  0.50000000
   0.62034317  0.62034317  0.62034317
   0.37965683  0.37965683  0.37965683
   0.13201533  0.13201533  0.13201533
   0.86798467  0.86798467  0.86798467
   0.74632044  0.74632044  0.74632044
   0.25367956  0.25367956  0.25367956
   0.00000000  0.00000000  0.50000000
   0.50000000  0.00000000 -0.00000000
   0.00000000  0.50000000 -0.00000000
unknown system                          
           1
     7.113530    0.086245    0.066474
     2.511307    6.656056    0.066474
     2.511307    1.759198    6.419714
   V    Fe
  17   3
Direct configuration=    12
   0.50000000  0.50000000 -0.00000000
   0.00000000  0.50000000  0.50000000
   0.50000000  0.00000000  0.50000000
   0.00000000  0.00000000 -0.00000000
   0.22456696  0.74096713  0.22456696
   0.22456696  0.22456696  0.74096713
   0.74096713  0.22456696  0.22456696
   0.77543304  0.25903287  0.77543304
   0.77543304  0.77543304  0.25903287
   0.25903287  0.77543304  0.77543304
   0.50000000  0.50000000  0.50000000
   0.61940995  0.61940995  0.61940995
   0.38059005  0.38059005  0.38059005
   0.13213972  0.13213972  0.13213972
   0.86786028  0.86786028  0.86786028
   0.74624682  0.74624682  0.74624682
   0.25375318  0.25375318  0.25375318
   0.00000000  0.00000000  0.50000000
   0.50000000  0.00000000 -0.00000000
   0.00000000  0.50000000 -0.00000000
unknown system                          
           1
     7.139433    0.140445    0.108250
     2.571096    6.661884    0.108250
     2.571096    1.801080    6.414712
   V    Fe
  17   3
Direct configuration=    13
   0.50000000  0.50000000 -0.00000000
   0.00000000  0.50000000  0.50000000
   0.50000000  0.00000000  0.50000000
   0.00000000  0.00000000 -0.00000000
   0.22947908  0.74905804  0.22947908
   0.22947908  0.22947908  0.74905804
   0.74905804  0.22947908  0.22947908
   0.77052092  0.25094196  0.77052092
   0.77052092  0.77052092  0.25094196
   0.25094196  0.77052092  0.77052092
   0.50000000  0.50000000  0.50000000
   0.61662147  0.61662147  0.61662147
   0.38337853  0.38337853  0.38337853
   0.13251140  0.13251140  0.13251140
   0.86748860  0.86748860  0.86748860
   0.74602682  0.74602682  0.74602682
   0.25397318  0.25397318  0.25397318
   0.00000000  0.00000000  0.50000000
   0.50000000  0.00000000 -0.00000000
   0.00000000  0.50000000 -0.00000000
unknown system                          
           1
     7.191240    0.248845    0.191801
     2.690673    6.673540    0.191801
     2.690673    1.884845    6.404709
   V    Fe
  17   3
Direct configuration=    14
   0.50000000  0.50000000 -0.00000000
  -0.00000000  0.50000000  0.50000000
   0.50000000  0.00000000  0.50000000
  -0.00000000  0.00000000 -0.00000000
   0.23914611  0.76512982  0.23914611
   0.23914611  0.23914611  0.76512982
   0.76512982  0.23914611  0.23914611
   0.76085389  0.23487018  0.76085389
   0.76085389  0.76085389  0.23487018
   0.23487018  0.76085389  0.76085389
   0.50000000  0.50000000  0.50000000
   0.61111058  0.61111058  0.61111058
   0.38888942  0.38888942  0.38888942
   0.13324596  0.13324596  0.13324596
   0.86675404  0.86675404  0.86675404
   0.74559205  0.74559205  0.74559205
   0.25440795  0.25440795  0.25440795
  -0.00000000  0.00000000  0.50000000
   0.50000000  0.00000000 -0.00000000
  -0.00000000  0.50000000 -0.00000000
unknown system                          
           1
     7.161137    0.185858    0.143253
     2.621191    6.666767    0.143253
     2.621191    1.836173    6.410521
   V    Fe
  17   3
Direct configuration=    15
   0.50000000  0.50000000 -0.00000000
  -0.00000000  0.50000000  0.50000000
   0.50000000  0.00000000  0.50000000
  -0.00000000  0.00000000 -0.00000000
   0.23370637  0.75591250  0.23370637
   0.23370637  0.23370637  0.75591250
   0.75591250  0.23370637  0.23370637
   0.76629363  0.24408750  0.76629363
   0.76629363  0.76629363  0.24408750
   0.24408750  0.76629363  0.76629363
   0.50000000  0.50000000  0.50000000
   0.61423863  0.61423863  0.61423863
   0.38576137  0.38576137  0.38576137
   0.13282902  0.13282902  0.13282902
   0.86717098  0.86717098  0.86717098
   0.74583883  0.74583883  0.74583883
   0.25416117  0.25416117  0.25416117
  -0.00000000  0.00000000  0.50000000
   0.50000000  0.00000000 -0.00000000
  -0.00000000  0.50000000 -0.00000000
unknown system                          
           1
     7.163709    0.196049    0.151108
     2.631648    6.665703    0.151108
     2.631648    1.843498    6.407492
   V    Fe
  17   3
Direct configuration=    16
   0.50000000  0.50000000 -0.00000000
  -0.00000000  0.50000000  0.50000000
   0.50000000  0.00000000  0.50000000
  -0.00000000  0.00000000 -0.00000000
   0.23466369  0.75755708  0.23466369
   0.23466369  0.23466369  0.75755708
   0.75755708  0.23466369  0.23466369
   0.76533631  0.24244292  0.76533631
   0.76533631  0.76533631  0.24244292
   0.24244292  0.76533631  0.76533631
   0.50000000  0.50000000  0.50000000
   0.61447780  0.61447780  0.61447780
   0.38552220  0.38552220  0.38552220
   0.13280459  0.13280459  0.13280459
   0.86719541  0.86719541  0.86719541
   0.74538461  0.74538461  0.74538461
   0.25461539  0.25461539  0.25461539
  -0.00000000  0.00000000  0.50000000
   0.50000000  0.00000000 -0.00000000
  -0.00000000  0.50000000 -0.00000000
unknown system                          
           1
     7.171425    0.226623    0.174673
     2.663019    6.662510    0.174673
     2.663019    1.865473    6.398403
   V    Fe
  17   3
Direct configuration=    17
   0.50000000  0.50000000 -0.00000000
  -0.00000000  0.50000000  0.50000000
   0.50000000  0.00000000  0.50000000
  -0.00000000  0.00000000 -0.00000000
   0.23752773  0.76248646  0.23752773
   0.23752773  0.23752773  0.76248646
   0.76248646  0.23752773  0.23752773
   0.76247227  0.23751354  0.76247227
   0.76247227  0.76247227  0.23751354
   0.23751354  0.76247227  0.76247227
   0.50000000  0.50000000  0.50000000
   0.61519394  0.61519394  0.61519394
   0.38480606  0.38480606  0.38480606
   0.13273145  0.13273145  0.13273145
   0.86726855  0.86726855  0.86726855
   0.74402454  0.74402454  0.74402454
   0.25597546  0.25597546  0.25597546
  -0.00000000  0.00000000  0.50000000
   0.50000000  0.00000000 -0.00000000
  -0.00000000  0.50000000 -0.00000000
unknown system                          
           1
     7.174442    0.238574    0.183885
     2.675281    6.661261    0.183885
     2.675281    1.874063    6.394850
   V    Fe
  17   3
Direct configuration=    18
   0.50000000  0.50000000 -0.00000000
  -0.00000000  0.50000000  0.50000000
   0.50000000  0.00000000  0.50000000
  -0.00000000  0.00000000 -0.00000000
   0.23863801  0.76440828  0.23863801
   0.23863801  0.23863801  0.76440828
   0.76440828  0.23863801  0.23863801
   0.76136199  0.23559172  0.76136199
   0.76136199  0.76136199  0.23559172
   0.23559172  0.76136199  0.76136199
   0.50000000  0.50000000  0.50000000
   0.61547229  0.61547229  0.61547229
   0.38452771  0.38452771  0.38452771
   0.13270302  0.13270302  0.13270302
   0.86729698  0.86729698  0.86729698
   0.74349590  0.74349590  0.74349590
   0.25650410  0.25650410  0.25650410
  -0.00000000  0.00000000  0.50000000
   0.50000000  0.00000000 -0.00000000
  -0.00000000  0.50000000 -0.00000000
unknown system                          
           1
     7.181407    0.236259    0.182101
     2.675485    6.668598    0.182101
     2.675485    1.874206    6.402400
   V    Fe
  17   3
Direct configuration=    19
   0.50000000  0.50000000 -0.00000000
  -0.00000000  0.50000000  0.50000000
   0.50000000  0.00000000  0.50000000
  -0.00000000  0.00000000 -0.00000000
   0.23914015  0.76386307  0.23914015
   0.23914015  0.23914015  0.76386307
   0.76386307  0.23914015  0.23914015
   0.76085985  0.23613693  0.76085985
   0.76085985  0.76085985  0.23613693
   0.23613693  0.76085985  0.76085985
   0.50000000  0.50000000  0.50000000
   0.61614191  0.61614191  0.61614191
   0.38385809  0.38385809  0.38385809
   0.13297647  0.13297647  0.13297647
   0.86702353  0.86702353  0.86702353
   0.74325390  0.74325390  0.74325390
   0.25674610  0.25674610  0.25674610
  -0.00000000  0.00000000  0.50000000
   0.50000000  0.00000000 -0.00000000
  -0.00000000  0.50000000 -0.00000000
unknown system                          
           1
     7.193307    0.232304    0.179052
     2.675833    6.681134    0.179052
     2.675833    1.874450    6.415299
   V    Fe
  17   3
Direct configuration=    20
   0.50000000  0.50000000 -0.00000000
  -0.00000000  0.50000000  0.50000000
   0.50000000  0.00000000  0.50000000
  -0.00000000  0.00000000 -0.00000000
   0.23999702  0.76293320  0.23999702
   0.23999702  0.23999702  0.76293320
   0.76293320  0.23999702  0.23999702
   0.76000298  0.23706680  0.76000298
   0.76000298  0.76000298  0.23706680
   0.23706680  0.76000298  0.76000298
   0.50000000  0.50000000  0.50000000
   0.61728530  0.61728530  0.61728530
   0.38271470  0.38271470  0.38271470
   0.13344339  0.13344339  0.13344339
   0.86655661  0.86655661  0.86655661
   0.74284068  0.74284068  0.74284068
   0.25715932  0.25715932  0.25715932
  -0.00000000  0.00000000  0.50000000
   0.50000000  0.00000000 -0.00000000
  -0.00000000  0.50000000 -0.00000000
unknown system                          
           1
     7.198266    0.230656    0.177782
     2.675978    6.686358    0.177782
     2.675979    1.874552    6.420674
   V    Fe
  17   3
Direct configuration=    21
   0.50000000  0.50000000 -0.00000000
  -0.00000000  0.50000000  0.50000000
   0.50000000  0.00000000  0.50000000
  -0.00000000  0.00000000 -0.00000000
   0.24035336  0.76254687  0.24035336
   0.24035336  0.24035336  0.76254687
   0.76254687  0.24035336  0.24035336
   0.75964664  0.23745313  0.75964664
   0.75964664  0.75964664  0.23745313
   0.23745313  0.75964664  0.75964664
   0.50000000  0.50000000  0.50000000
   0.61776130  0.61776130  0.61776130
   0.38223870  0.38223870  0.38223870
   0.13363776  0.13363776  0.13363776
   0.86636224  0.86636224  0.86636224
   0.74266865  0.74266865  0.74266865
   0.25733135  0.25733135  0.25733135
  -0.00000000  0.00000000  0.50000000
   0.50000000  0.00000000 -0.00000000
  -0.00000000  0.50000000 -0.00000000
unknown system                          
           1
     7.179666    0.220392    0.169870
     2.659977    6.672383    0.169870
     2.659977    1.863343    6.409174
   V    Fe
  17   3
Direct configuration=    22
   0.50000000  0.50000000 -0.00000000
  -0.00000000  0.50000000  0.50000000
   0.50000000  0.00000000  0.50000000
  -0.00000000  0.00000000 -0.00000000
   0.24098988  0.76196225  0.24098988
   0.24098988  0.24098988  0.76196225
   0.76196225  0.24098988  0.24098988
   0.75901012  0.23803775  0.75901012
   0.75901012  0.75901012  0.23803775
   0.23803775  0.75901012  0.75901012
   0.50000000  0.50000000  0.50000000
   0.61848021  0.61848021  0.61848021
   0.38151979  0.38151979  0.38151979
   0.13390970  0.13390970  0.13390970
   0.86609030  0.86609030  0.86609030
   0.74268269  0.74268269  0.74268269
   0.25731731  0.25731731  0.25731731
  -0.00000000  0.00000000  0.50000000
   0.50000000  0.00000000 -0.00000000
  -0.00000000  0.50000000 -0.00000000
unknown system                          
           1
     7.160043    0.209564    0.161524
     2.643097    6.657640    0.161524
     2.643097    1.851518    6.397043
   V    Fe
  17   3
Direct configuration=    23
   0.50000000  0.50000000 -0.00000000
  -0.00000000  0.50000000  0.50000000
   0.50000000  0.00000000  0.50000000
  -0.00000000  0.00000000 -0.00000000
   0.24166260  0.76134601  0.24166260
   0.24166260  0.24166260  0.76134601
   0.76134601  0.24166260  0.24166260
   0.75833740  0.23865399  0.75833740
   0.75833740  0.75833740  0.23865399
   0.23865399  0.75833740  0.75833740
   0.50000000  0.50000000  0.50000000
   0.61924169  0.61924169  0.61924169
   0.38075831  0.38075831  0.38075831
   0.13419773  0.13419773  0.13419773
   0.86580227  0.86580227  0.86580227
   0.74269757  0.74269757  0.74269757
   0.25730243  0.25730243  0.25730243
  -0.00000000  0.00000000  0.50000000
   0.50000000  0.00000000 -0.00000000
  -0.00000000  0.50000000 -0.00000000
unknown system                          
           1
     7.166012    0.212857    0.164063
     2.648231    6.662124    0.164063
     2.648231    1.855115    6.400733
   V    Fe
  17   3
Direct configuration=    24
   0.50000000  0.50000000 -0.00000000
  -0.00000000  0.50000000  0.50000000
   0.50000000  0.00000000  0.50000000
  -0.00000000  0.00000000 -0.00000000
   0.24145758  0.76153329  0.24145758
   0.24145758  0.24145758  0.76153329
   0.76153329  0.24145758  0.24145758
   0.75854242  0.23846671  0.75854242
   0.75854242  0.75854242  0.23846671
   0.23846671  0.75854242  0.75854242
   0.50000000  0.50000000  0.50000000
   0.61900908  0.61900908  0.61900908
   0.38099092  0.38099092  0.38099092
   0.13410974  0.13410974  0.13410974
   0.86589026  0.86589026  0.86589026
   0.74269302  0.74269302  0.74269302
   0.25730698  0.25730698  0.25730698
  -0.00000000  0.00000000  0.50000000
   0.50000000  0.00000000 -0.00000000
  -0.00000000  0.50000000 -0.00000000
unknown system                          
           1
     7.160236    0.201495    0.155306
     2.635580    6.660578    0.155306
     2.635580    1.846252    6.401467
   V    Fe
  17   3
Direct configuration=    25
   0.50000000  0.50000000 -0.00000000
  -0.00000000  0.50000000  0.50000000
   0.50000000  0.00000000  0.50000000
  -0.00000000  0.00000000 -0.00000000
   0.24185252  0.76146484  0.24185252
   0.24185252  0.24185252  0.76146484
   0.76146484  0.24185252  0.24185252
   0.75814748  0.23853516  0.75814748
   0.75814748  0.75814748  0.23853516
   0.23853516  0.75814748  0.75814748
   0.50000000  0.50000000  0.50000000
   0.61921008  0.61921008  0.61921008
   0.38078992  0.38078992  0.38078992
   0.13404150  0.13404150  0.13404150
   0.86595850  0.86595850  0.86595850
   0.74313216  0.74313216  0.74313216
   0.25686784  0.25686784  0.25686784
  -0.00000000  0.00000000  0.50000000
   0.50000000  0.00000000 -0.00000000
  -0.00000000  0.50000000 -0.00000000
unknown system                          
           1
     7.142910    0.167410    0.129034
     2.597626    6.655940    0.129034
     2.597626    1.819665    6.403672
   V    Fe
  17   3
Direct configuration=    26
   0.50000000  0.50000000 -0.00000000
  -0.00000000  0.50000000  0.50000000
   0.50000000  0.00000000  0.50000000
  -0.00000000  0.00000000 -0.00000000
   0.24303842  0.76126270  0.24303842
   0.24303842  0.24303842  0.76126270
   0.76126270  0.24303842  0.24303842
   0.75696158  0.23873730  0.75696158
   0.75696158  0.75696158  0.23873730
   0.23873730  0.75696158  0.75696158
   0.50000000  0.50000000  0.50000000
   0.61981459  0.61981459  0.61981459
   0.38018541  0.38018541  0.38018541
   0.13383625  0.13383625  0.13383625
   0.86616375  0.86616375  0.86616375
   0.74445284  0.74445284  0.74445284
   0.25554716  0.25554716  0.25554716
  -0.00000000  0.00000000  0.50000000
   0.50000000  0.00000000 -0.00000000
  -0.00000000  0.50000000 -0.00000000
unknown system                          
           1
     7.138805    0.158754    0.122362
     2.588088    6.655038    0.122362
     2.588088    1.812984    6.404499
   V    Fe
  17   3
Direct configuration=    27
   0.50000000  0.50000000 -0.00000000
  -0.00000000  0.50000000  0.50000000
   0.50000000  0.00000000  0.50000000
  -0.00000000  0.00000000 -0.00000000
   0.24364876  0.76112337  0.24364876
   0.24364876  0.24364876  0.76112337
   0.76112337  0.24364876  0.24364876
   0.75635124  0.23887663  0.75635124
   0.75635124  0.75635124  0.23887663
   0.23887663  0.75635124  0.75635124
   0.50000000  0.50000000  0.50000000
   0.62011462  0.62011462  0.62011462
   0.37988538  0.37988538  0.37988538
   0.13290523  0.13290523  0.13290523
   0.86709477  0.86709477  0.86709477
   0.74478559  0.74478559  0.74478559
   0.25521441  0.25521441  0.25521441
  -0.00000000  0.00000000  0.50000000
   0.50000000  0.00000000 -0.00000000
  -0.00000000  0.50000000 -0.00000000
unknown system                          
           1
     7.126487    0.132786    0.102347
     2.559475    6.652333    0.102347
     2.559475    1.792940    6.406980
   V    Fe
  17   3
Direct configuration=    28
   0.50000000  0.50000000 -0.00000000
  -0.00000000  0.50000000  0.50000000
   0.50000000  0.00000000  0.50000000
  -0.00000000  0.00000000 -0.00000000
   0.24548091  0.76070920  0.24548091
   0.24548091  0.24548091  0.76070920
   0.76070920  0.24548091  0.24548091
   0.75451909  0.23929080  0.75451909
   0.75451909  0.75451909  0.23929080
   0.23929080  0.75451909  0.75451909
   0.50000000  0.50000000  0.50000000
   0.62101642  0.62101642  0.62101642
   0.37898358  0.37898358  0.37898358
   0.13010692  0.13010692  0.13010692
   0.86989308  0.86989308  0.86989308
   0.74578570  0.74578570  0.74578570
   0.25421430  0.25421430  0.25421430
  -0.00000000  0.00000000  0.50000000
   0.50000000  0.00000000 -0.00000000
  -0.00000000  0.50000000 -0.00000000
unknown system                          
           1
     7.121599    0.135065    0.104103
     2.559947    6.646961    0.104103
     2.559947    1.793270    6.401337
   V    Fe
  17   3
Direct configuration=    29
   0.50000000  0.50000000 -0.00000000
  -0.00000000  0.50000000  0.50000000
   0.50000000  0.00000000  0.50000000
  -0.00000000  0.00000000 -0.00000000
   0.24673151  0.76021988  0.24673151
   0.24673151  0.24673151  0.76021988
   0.76021988  0.24673151  0.24673151
   0.75326849  0.23978012  0.75326849
   0.75326849  0.75326849  0.23978012
   0.23978012  0.75326849  0.75326849
   0.50000000  0.50000000  0.50000000
   0.62139814  0.62139814  0.62139814
   0.37860186  0.37860186  0.37860186
   0.12926346  0.12926346  0.12926346
   0.87073654  0.87073654  0.87073654
   0.74661538  0.74661538  0.74661538
   0.25338462  0.25338462  0.25338462
  -0.00000000  0.00000000  0.50000000
   0.50000000  0.00000000 -0.00000000
  -0.00000000  0.50000000 -0.00000000
unknown system                          
           1
     7.107812    0.141494    0.109059
     2.561279    6.631807    0.109059
     2.561279    1.794203    6.385421
   V    Fe
  17   3
Direct configuration=    30
   0.50000000  0.50000000 -0.00000000
  -0.00000000  0.50000000  0.50000000
   0.50000000  0.00000000  0.50000000
  -0.00000000  0.00000000 -0.00000000
   0.25026178  0.75883636  0.25026178
   0.25026178  0.25026178  0.75883636
   0.75883636  0.25026178  0.25026178
   0.74973822  0.24116364  0.74973822
   0.74973822  0.74973822  0.24116364
   0.24116364  0.74973822  0.74973822
   0.50000000  0.50000000  0.50000000
   0.62247526  0.62247526  0.62247526
   0.37752474  0.37752474  0.37752474
   0.12688343  0.12688343  0.12688343
   0.87311657  0.87311657  0.87311657
   0.74895652  0.74895652  0.74895652
   0.25104348  0.25104348  0.25104348
  -0.00000000  0.00000000  0.50000000
   0.50000000  0.00000000 -0.00000000
  -0.00000000  0.50000000 -0.00000000
unknown system                          
           1
     7.109332    0.142738    0.110018
     2.562968    6.632810    0.110018
     2.562968    1.795387    6.386147
   V    Fe
  17   3
Direct configuration=    31
   0.50000000  0.50000000 -0.00000000
  -0.00000000  0.50000000  0.50000000
   0.50000000  0.00000000  0.50000000
  -0.00000000  0.00000000 -0.00000000
   0.25065413  0.75873954  0.25065413
   0.25065413  0.25065413  0.75873954
   0.75873954  0.25065413  0.25065413
   0.74934587  0.24126046  0.74934587
   0.74934587  0.74934587  0.24126046
   0.24126046  0.74934587  0.74934587
   0.50000000  0.50000000  0.50000000
   0.62261371  0.62261371  0.62261371
   0.37738629  0.37738629  0.37738629