  20  20   0   0
  0.1295360E+02  0.6363238E-09  0.9740396E-09  0.4251541E-09  0.5000000E-15
  1.000000000000000E-004
  CAR 
 unknown system                          
      8.99870444     -1.42296337  301      6.54337157      1.00000000
     -1.423  0.0000E+00  0.0000E+00
     -1.388  0.0000E+00  0.0000E+00
     -1.353  0.0000E+00  0.0000E+00
     -1.319  0.0000E+00  0.0000E+00
     -1.284  0.0000E+00  0.0000E+00
     -1.249  0.0000E+00  0.0000E+00
     -1.215  0.0000E+00  0.0000E+00
     -1.180  0.0000E+00  0.0000E+00
     -1.145  0.0000E+00  0.0000E+00
     -1.110  0.0000E+00  0.0000E+00
     -1.076  0.0000E+00  0.0000E+00
     -1.041  0.0000E+00  0.0000E+00
     -1.006  0.5327E-18  0.1850E-19
     -0.971  0.4155E-16  0.1462E-17
     -0.937  0.1758E-14  0.6254E-16
     -0.902  0.5876E-13  0.2104E-14
     -0.867  0.1547E-11  0.5584E-13
     -0.832  0.3209E-10  0.1171E-11
     -0.798  0.5248E-09  0.1940E-10
     -0.763  0.6764E-08  0.2544E-09
     -0.728  0.6873E-07  0.2642E-08
     -0.693  0.5508E-06  0.2178E-07
     -0.659  0.3481E-05  0.1427E-06
     -0.624  0.1736E-04  0.7457E-06
     -0.589  0.6827E-04  0.3117E-05
     -0.554  0.2119E-03  0.1048E-04
     -0.520  0.5191E-03  0.2851E-04
     -0.485  0.1003E-02  0.6337E-04
     -0.450  0.1531E-02  0.1166E-03
     -0.416  0.1844E-02  0.1806E-03
     -0.381  0.1753E-02  0.2415E-03
     -0.346  0.1316E-02  0.2872E-03
     -0.311  0.7794E-03  0.3143E-03
     -0.277  0.3659E-03  0.3270E-03
     -0.242  0.1433E-03  0.3320E-03
     -0.207  0.7803E-04  0.3347E-03
     -0.172  0.1428E-03  0.3396E-03
     -0.138  0.3647E-03  0.3523E-03
     -0.103  0.7786E-03  0.3794E-03
     -0.068  0.1321E-02  0.4252E-03
     -0.033  0.1786E-02  0.4873E-03
      0.001  0.1966E-02  0.5556E-03
      0.036  0.1869E-02  0.6205E-03
      0.071  0.1740E-02  0.6810E-03
      0.106  0.1787E-02  0.7431E-03
      0.140  0.1937E-02  0.8104E-03
      0.175  0.1922E-02  0.8771E-03
      0.210  0.1590E-02  0.9324E-03
      0.245  0.1060E-02  0.9692E-03
      0.279  0.5754E-03  0.9892E-03
      0.314  0.3037E-03  0.9998E-03
      0.349  0.2964E-03  0.1010E-02
      0.383  0.5550E-03  0.1029E-02
      0.418  0.1036E-02  0.1065E-02
      0.453  0.1590E-02  0.1121E-02
      0.488  0.2016E-02  0.1191E-02
      0.522  0.2273E-02  0.1270E-02
      0.557  0.2631E-02  0.1361E-02
      0.592  0.3425E-02  0.1480E-02
      0.627  0.4577E-02  0.1639E-02
      0.661  0.5458E-02  0.1829E-02
      0.696  0.5404E-02  0.2016E-02
      0.731  0.4378E-02  0.2168E-02
      0.766  0.3046E-02  0.2274E-02
      0.800  0.2234E-02  0.2352E-02
      0.835  0.2376E-02  0.2434E-02
      0.870  0.3378E-02  0.2552E-02
      0.905  0.4768E-02  0.2717E-02
      0.939  0.5931E-02  0.2923E-02
      0.974  0.6351E-02  0.3144E-02
      1.009  0.5850E-02  0.3347E-02
      1.043  0.4744E-02  0.3512E-02
      1.078  0.3733E-02  0.3642E-02
      1.113  0.3450E-02  0.3762E-02
      1.148  0.3974E-02  0.3900E-02
      1.182  0.4771E-02  0.4065E-02
      1.217  0.5164E-02  0.4245E-02
      1.252  0.4910E-02  0.4415E-02
      1.287  0.4389E-02  0.4568E-02
      1.321  0.4291E-02  0.4717E-02
      1.356  0.5079E-02  0.4893E-02
      1.391  0.6621E-02  0.5123E-02
      1.426  0.8265E-02  0.5410E-02
      1.460  0.9318E-02  0.5734E-02
      1.495  0.9481E-02  0.6063E-02
      1.530  0.8884E-02  0.6372E-02
      1.565  0.7815E-02  0.6644E-02
      1.599  0.6519E-02  0.6870E-02
      1.634  0.5203E-02  0.7051E-02
      1.669  0.4111E-02  0.7194E-02
      1.704  0.3541E-02  0.7317E-02
      1.738  0.3719E-02  0.7446E-02
      1.773  0.4594E-02  0.7605E-02
      1.808  0.5768E-02  0.7806E-02
      1.842  0.6742E-02  0.8040E-02
      1.877  0.7225E-02  0.8291E-02
      1.912  0.7238E-02  0.8542E-02
      1.947  0.6984E-02  0.8785E-02
      1.981  0.6619E-02  0.9015E-02
      2.016  0.6100E-02  0.9227E-02
      2.051  0.5349E-02  0.9413E-02
      2.086  0.4643E-02  0.9574E-02
      2.120  0.4748E-02  0.9739E-02
      2.155  0.6420E-02  0.9962E-02
      2.190  0.9565E-02  0.1029E-01
      2.225  0.1284E-01  0.1074E-01
      2.259  0.1431E-01  0.1124E-01
      2.294  0.1292E-01  0.1169E-01
      2.329  0.9387E-02  0.1201E-01
      2.364  0.5483E-02  0.1220E-01
      2.398  0.2669E-02  0.1230E-01
      2.433  0.1405E-02  0.1234E-01
      2.468  0.1528E-02  0.1240E-01
      2.503  0.2796E-02  0.1249E-01
      2.537  0.4997E-02  0.1267E-01
      2.572  0.7744E-02  0.1294E-01
      2.607  0.1035E-01  0.1330E-01
      2.641  0.1193E-01  0.1371E-01
      2.676  0.1190E-01  0.1412E-01
      2.711  0.1043E-01  0.1449E-01
      2.746  0.8650E-02  0.1479E-01
      2.780  0.8021E-02  0.1507E-01
      2.815  0.9539E-02  0.1540E-01
      2.850  0.1315E-01  0.1585E-01
      2.885  0.1784E-01  0.1647E-01
      2.919  0.2235E-01  0.1725E-01
      2.954  0.2587E-01  0.1815E-01
      2.989  0.2830E-01  0.1913E-01
      3.024  0.2998E-01  0.2017E-01
      3.058  0.3125E-01  0.2126E-01
      3.093  0.3216E-01  0.2238E-01
      3.128  0.3261E-01  0.2351E-01
      3.163  0.3279E-01  0.2465E-01
      3.197  0.3325E-01  0.2580E-01
      3.232  0.3425E-01  0.2699E-01
      3.267  0.3507E-01  0.2821E-01
      3.302  0.3464E-01  0.2941E-01
      3.336  0.3312E-01  0.3057E-01
      3.371  0.3230E-01  0.3169E-01
      3.406  0.3401E-01  0.3287E-01
      3.440  0.3831E-01  0.3420E-01
      3.475  0.4360E-01  0.3571E-01
      3.510  0.4797E-01  0.3738E-01
      3.545  0.5045E-01  0.3913E-01
      3.579  0.5106E-01  0.4091E-01
      3.614  0.5025E-01  0.4265E-01
      3.649  0.4879E-01  0.4435E-01
      3.684  0.4818E-01  0.4602E-01
      3.718  0.5016E-01  0.4776E-01
      3.753  0.5520E-01  0.4968E-01
      3.788  0.6153E-01  0.5182E-01
      3.823  0.6627E-01  0.5412E-01
      3.857  0.6764E-01  0.5647E-01
      3.892  0.6615E-01  0.5877E-01
      3.927  0.6389E-01  0.6099E-01
      3.962  0.6299E-01  0.6318E-01
      3.996  0.6430E-01  0.6541E-01
      4.031  0.6697E-01  0.6774E-01
      4.066  0.6904E-01  0.7013E-01
      4.101  0.6861E-01  0.7252E-01
      4.135  0.6468E-01  0.7477E-01
      4.170  0.5761E-01  0.7677E-01
      4.205  0.4892E-01  0.7847E-01
      4.239  0.4065E-01  0.7988E-01
      4.274  0.3455E-01  0.8108E-01
      4.309  0.3156E-01  0.8217E-01
      4.344  0.3123E-01  0.8326E-01
      4.378  0.3157E-01  0.8436E-01
      4.413  0.3022E-01  0.8541E-01
      4.448  0.2653E-01  0.8633E-01
      4.483  0.2277E-01  0.8712E-01
      4.517  0.2269E-01  0.8791E-01
      4.552  0.2851E-01  0.8890E-01
      4.587  0.3906E-01  0.9025E-01
      4.622  0.5051E-01  0.9201E-01
      4.656  0.5900E-01  0.9406E-01
      4.691  0.6293E-01  0.9624E-01
      4.726  0.6338E-01  0.9845E-01
      4.761  0.6293E-01  0.1006E+00
      4.795  0.6368E-01  0.1028E+00
      4.830  0.6580E-01  0.1051E+00
      4.865  0.6798E-01  0.1075E+00
      4.900  0.6924E-01  0.1099E+00
      4.934  0.6973E-01  0.1123E+00
      4.969  0.6965E-01  0.1147E+00
      5.004  0.6833E-01  0.1171E+00
      5.038  0.6503E-01  0.1194E+00
      5.073  0.6030E-01  0.1215E+00
      5.108  0.5612E-01  0.1234E+00
      5.143  0.5446E-01  0.1253E+00
      5.177  0.5569E-01  0.1272E+00
      5.212  0.5847E-01  0.1293E+00
      5.247  0.6131E-01  0.1314E+00
      5.282  0.6379E-01  0.1336E+00
      5.316  0.6616E-01  0.1359E+00
      5.351  0.6850E-01  0.1383E+00
      5.386  0.7082E-01  0.1408E+00
      5.421  0.7334E-01  0.1433E+00
      5.455  0.7607E-01  0.1459E+00
      5.490  0.7801E-01  0.1487E+00
      5.525  0.7775E-01  0.1514E+00
      5.560  0.7473E-01  0.1540E+00
      5.594  0.6993E-01  0.1564E+00
      5.629  0.6514E-01  0.1586E+00
      5.664  0.6188E-01  0.1608E+00
      5.699  0.6095E-01  0.1629E+00
      5.733  0.6257E-01  0.1651E+00
      5.768  0.6617E-01  0.1674E+00
      5.803  0.7019E-01  0.1698E+00
      5.837  0.7271E-01  0.1724E+00
      5.872  0.7270E-01  0.1749E+00
      5.907  0.7068E-01  0.1773E+00
      5.942  0.6826E-01  0.1797E+00
      5.976  0.6707E-01  0.1820E+00
      6.011  0.6788E-01  0.1844E+00
      6.046  0.7056E-01  0.1868E+00
      6.081  0.7438E-01  0.1894E+00
      6.115  0.7803E-01  0.1921E+00
      6.150  0.7971E-01  0.1949E+00
      6.185  0.7825E-01  0.1976E+00
      6.220  0.7409E-01  0.2002E+00
      6.254  0.6889E-01  0.2026E+00
      6.289  0.6427E-01  0.2048E+00
      6.324  0.6087E-01  0.2069E+00
      6.359  0.5834E-01  0.2090E+00
      6.393  0.5580E-01  0.2109E+00
      6.428  0.5255E-01  0.2127E+00
      6.463  0.4884E-01  0.2144E+00
      6.498  0.4563E-01  0.2160E+00
      6.532  0.4354E-01  0.2175E+00
      6.567  0.4253E-01  0.2190E+00
      6.602  0.4222E-01  0.2205E+00
      6.636  0.4180E-01  0.2219E+00
      6.671  0.3998E-01  0.2233E+00
      6.706  0.3602E-01  0.2246E+00
      6.741  0.3074E-01  0.2256E+00
      6.775  0.2608E-01  0.2265E+00
      6.810  0.2363E-01  0.2274E+00
      6.845  0.2360E-01  0.2282E+00
      6.880  0.2523E-01  0.2291E+00
      6.914  0.2782E-01  0.2300E+00
      6.949  0.3111E-01  0.2311E+00
      6.984  0.3456E-01  0.2323E+00
      7.019  0.3685E-01  0.2336E+00
      7.053  0.3673E-01  0.2349E+00
      7.088  0.3438E-01  0.2361E+00
      7.123  0.3150E-01  0.2371E+00
      7.158  0.3021E-01  0.2382E+00
      7.192  0.3170E-01  0.2393E+00
      7.227  0.3566E-01  0.2405E+00
      7.262  0.4045E-01  0.2419E+00
      7.296  0.4420E-01  0.2435E+00
      7.331  0.4628E-01  0.2451E+00
      7.366  0.4774E-01  0.2467E+00
      7.401  0.5019E-01  0.2485E+00
      7.435  0.5397E-01  0.2504E+00
      7.470  0.5741E-01  0.2524E+00
      7.505  0.5836E-01  0.2544E+00
      7.540  0.5619E-01  0.2563E+00
      7.574  0.5235E-01  0.2582E+00
      7.609  0.4877E-01  0.2598E+00
      7.644  0.4631E-01  0.2615E+00
      7.679  0.4474E-01  0.2630E+00
      7.713  0.4346E-01  0.2645E+00
      7.748  0.4182E-01  0.2660E+00
      7.783  0.3902E-01  0.2673E+00
      7.818  0.3453E-01  0.2685E+00
      7.852  0.2862E-01  0.2695E+00
      7.887  0.2223E-01  0.2703E+00
      7.922  0.1639E-01  0.2709E+00
      7.957  0.1172E-01  0.2713E+00
      7.991  0.8266E-02  0.2716E+00
      8.026  0.5676E-02  0.2718E+00
      8.061  0.3614E-02  0.2719E+00
      8.095  0.2014E-02  0.2720E+00
      8.130  0.9396E-03  0.2720E+00
      8.165  0.3572E-03  0.2720E+00
      8.200  0.1091E-03  0.2720E+00
      8.234  0.2654E-04  0.2720E+00
      8.269  0.5126E-05  0.2720E+00
      8.304  0.7844E-06  0.2720E+00
      8.339  0.9496E-07  0.2720E+00
      8.373  0.9090E-08  0.2720E+00
      8.408  0.6875E-09  0.2720E+00
      8.443  0.4107E-10  0.2720E+00
      8.478  0.1938E-11  0.2720E+00
      8.512  0.7215E-13  0.2720E+00
      8.547  0.2118E-14  0.2720E+00
      8.582  0.5113E-16  0.2720E+00
      8.617  0.0000E+00  0.2720E+00
      8.651  0.0000E+00  0.2720E+00
      8.686  0.0000E+00  0.2720E+00
      8.721  0.0000E+00  0.2720E+00
      8.756  0.0000E+00  0.2720E+00
      8.790  0.0000E+00  0.2720E+00
      8.825  0.0000E+00  0.2720E+00
      8.860  0.0000E+00  0.2720E+00
      8.894  0.0000E+00  0.2720E+00
      8.929  0.0000E+00  0.2720E+00
      8.964  0.0000E+00  0.2720E+00
      8.999  0.0000E+00  0.2720E+00
