   20   20  500    1
  0.1295360E+02  0.6363238E-09  0.9740395E-09  0.4251541E-09  0.5000000E-15
  1.000000000000000E-004
  CAR 
 unknown system                          
    109      8     68
 
  0.0000000E+00  0.0000000E+00  0.0000000E+00  0.8333333E-01
    1       -0.422963   1.000000
    2        1.250558   1.000000
    3        1.465806   1.000000
    4        2.900622   1.000000
    5        2.940495   1.000000
    6        3.111880   1.000000
    7        3.184850   1.000000
    8        3.245870   1.000000
    9        3.507425   1.000000
   10        3.548262   1.000000
   11        3.824436   1.000000
   12        3.834889   1.000000
   13        3.853726   1.000000
   14        3.939454   1.000000
   15        3.968972   1.000000
   16        4.079418   1.000000
   17        4.086526   1.000000
   18        4.138787   1.000000
   19        4.241967   1.000000
   20        4.249392   1.000000
   21        4.337407   1.000000
   22        4.405151   1.000000
   23        4.427736   1.000000
   24        4.586061   1.000000
   25        4.624293   1.000000
   26        4.653865   1.000000
   27        4.731064   1.000000
   28        4.744737   1.000000
   29        4.768455   1.000000
   30        4.826991   1.000000
   31        4.866048   1.000000
   32        4.933352   1.000000
   33        5.047932   1.000000
   34        5.052941   1.000000
   35        5.118864   1.000000
   36        5.202442   1.000000
   37        5.274300   1.000000
   38        5.427741   1.000000
   39        5.462890   1.000000
   40        5.512290   1.000000
   41        5.604681   1.000000
   42        5.686176   1.000000
   43        5.789917   1.000000
   44        5.833713   1.000000
   45        5.866975   1.000000
   46        5.903780   1.000000
   47        6.142276   1.000000
   48        6.236342   0.999993
   49        6.365447   0.994069
   50        6.401878   0.977305
   51        6.424298   0.953905
   52        6.463024   0.872083
   53        6.530777   0.570683
   54        6.541163   0.512458
   55        6.641582   0.082431
   56        6.667999   0.038993
   57        6.804284   0.000112
   58        6.872365   0.000002
   59        6.909345   0.000000
   60        7.106500   0.000000
   61        7.278184   0.000000
   62        7.282498   0.000000
   63        7.420952   0.000000
   64        7.491635   0.000000
   65        7.544919   0.000000
   66        7.656441   0.000000
   67        7.738491   0.000000
   68        7.892225   0.000000
 
  0.5000000E+00 -0.3106929E-16 -0.9593821E-21  0.8333333E-01
    1        0.478986   1.000000
    2        0.931407   1.000000
    3        1.644952   1.000000
    4        1.951341   1.000000
    5        2.642878   1.000000
    6        2.674727   1.000000
    7        2.975469   1.000000
    8        3.066823   1.000000
    9        3.094570   1.000000
   10        3.539321   1.000000
   11        3.747873   1.000000
   12        3.798463   1.000000
   13        3.892678   1.000000
   14        3.906257   1.000000
   15        4.035287   1.000000
   16        4.129744   1.000000
   17        4.132031   1.000000
   18        4.147062   1.000000
   19        4.211830   1.000000
   20        4.283929   1.000000
   21        4.368702   1.000000
   22        4.396499   1.000000
   23        4.426638   1.000000
   24        4.583335   1.000000
   25        4.595742   1.000000
   26        4.702657   1.000000
   27        4.944910   1.000000
   28        4.990634   1.000000
   29        5.004199   1.000000
   30        5.029207   1.000000
   31        5.054485   1.000000
   32        5.104220   1.000000
   33        5.173705   1.000000
   34        5.215947   1.000000
   35        5.325024   1.000000
   36        5.355452   1.000000
   37        5.533364   1.000000
   38        5.597548   1.000000
   39        5.610107   1.000000
   40        5.667266   1.000000
   41        5.680716   1.000000
   42        5.790833   1.000000
   43        5.801489   1.000000
   44        5.848397   1.000000
   45        5.850022   1.000000
   46        5.887191   1.000000
   47        5.907514   1.000000
   48        5.961882   1.000000
   49        5.965289   1.000000
   50        6.012307   1.000000
   51        6.125721   1.000000
   52        6.135575   1.000000
   53        6.240500   0.999991
   54        6.374894   0.991405
   55        6.397544   0.980411
   56        6.529440   0.578094
   57        6.846961   0.000009
   58        7.030979   0.000000
   59        7.086093   0.000000
   60        7.307981   0.000000
   61        7.355841   0.000000
   62        7.396937   0.000000
   63        7.494371   0.000000
   64        7.738505   0.000000
   65        7.842648   0.000000
   66        7.858942   0.000000
   67        7.983770   0.000000
   68        7.998704   0.000000
 
  0.0000000E+00  0.5000000E+00 -0.1701026E-19  0.8333333E-01
    1       -0.025828   1.000000
    2        0.150873   1.000000
    3        2.632162   1.000000
    4        2.728680   1.000000
    5        2.957941   1.000000
    6        3.025299   1.000000
    7        3.289633   1.000000
    8        3.382310   1.000000
    9        3.586806   1.000000
   10        3.647178   1.000000
   11        3.686391   1.000000
   12        3.772202   1.000000
   13        3.813922   1.000000
   14        3.825015   1.000000
   15        3.975888   1.000000
   16        3.996659   1.000000
   17        4.008617   1.000000
   18        4.081500   1.000000
   19        4.102827   1.000000
   20        4.121203   1.000000
   21        4.363443   1.000000
   22        4.411729   1.000000
   23        4.534781   1.000000
   24        4.563476   1.000000
   25        4.587355   1.000000
   26        4.614951   1.000000
   27        4.661030   1.000000
   28        4.712088   1.000000
   29        4.829571   1.000000
   30        4.850894   1.000000
   31        4.902080   1.000000
   32        4.923529   1.000000
   33        5.037968   1.000000
   34        5.077135   1.000000
   35        5.256854   1.000000
   36        5.341174   1.000000
   37        5.448293   1.000000
   38        5.470499   1.000000
   39        5.476572   1.000000
   40        5.481041   1.000000
   41        5.521965   1.000000
   42        5.535013   1.000000
   43        5.655867   1.000000
   44        5.670804   1.000000
   45        5.724553   1.000000
   46        5.800150   1.000000
   47        6.128550   1.000000
   48        6.284598   0.999874
   49        6.361588   0.994927
   50        6.381237   0.989074
   51        6.500680   0.726993
   52        6.523697   0.609585
   53        6.582348   0.290746
   54        6.640612   0.084537
   55        6.742186   0.002464
   56        6.888170   0.000001
   57        6.903949   0.000000
   58        7.005038   0.000000
   59        7.074784   0.000000
   60        7.113778   0.000000
   61        7.169774   0.000000
   62        7.232406   0.000000
   63        7.317533   0.000000
   64        7.377536   0.000000
   65        7.485590   0.000000
   66        7.565939   0.000000
   67        7.685701   0.000000
   68        7.876978   0.000000
 
  0.5000000E+00  0.5000000E+00  0.2100953E-19  0.8333333E-01
    1        0.681147   1.000000
    2        0.891485   1.000000
    3        1.444919   1.000000
    4        1.488848   1.000000
    5        3.052398   1.000000
    6        3.159630   1.000000
    7        3.274465   1.000000
    8        3.275481   1.000000
    9        3.320157   1.000000
   10        3.342325   1.000000
   11        3.416600   1.000000
   12        3.429267   1.000000
   13        3.646910   1.000000
   14        3.742073   1.000000
   15        3.760508   1.000000
   16        3.786553   1.000000
   17        4.195066   1.000000
   18        4.212370   1.000000
   19        4.378924   1.000000
   20        4.412885   1.000000
   21        4.609225   1.000000
   22        4.611543   1.000000
   23        4.658941   1.000000
   24        4.702073   1.000000
   25        4.703310   1.000000
   26        4.790069   1.000000
   27        4.847652   1.000000
   28        4.871729   1.000000
   29        4.945772   1.000000
   30        4.989275   1.000000
   31        4.998055   1.000000
   32        5.175070   1.000000
   33        5.192031   1.000000
   34        5.291444   1.000000
   35        5.309391   1.000000
   36        5.357171   1.000000
   37        5.374368   1.000000
   38        5.429674   1.000000
   39        5.513621   1.000000
   40        5.517944   1.000000
   41        5.554061   1.000000
   42        5.597655   1.000000
   43        5.780418   1.000000
   44        5.783893   1.000000
   45        5.817135   1.000000
   46        5.861535   1.000000
   47        5.879506   1.000000
   48        5.971162   1.000000
   49        6.093300   1.000000
   50        6.119160   1.000000
   51        6.232267   0.999995
   52        6.277918   0.999913
   53        6.346509   0.997316
   54        6.417387   0.962600
   55        6.656235   0.055230
   56        6.796414   0.000173
   57        6.935655   0.000000
   58        7.078015   0.000000
   59        7.239853   0.000000
   60        7.253280   0.000000
   61        7.265311   0.000000
   62        7.335906   0.000000
   63        7.435719   0.000000
   64        7.467978   0.000000
   65        7.536642   0.000000
   66        7.613509   0.000000
   67        7.725164   0.000000
   68        7.904970   0.000000
 
  0.0000000E+00  0.0000000E+00  0.3333333E+00  0.1666667E+00
    1        0.652469   1.000000
    2        2.024236   1.000000
    3        2.255652   1.000000
    4        2.647300   1.000000
    5        3.100915   1.000000
    6        3.163710   1.000000
    7        3.403540   1.000000
    8        3.496717   1.000000
    9        3.583436   1.000000
   10        3.609957   1.000000
   11        3.652288   1.000000
   12        3.773000   1.000000
   13        3.780732   1.000000
   14        3.811564   1.000000
   15        3.900495   1.000000
   16        3.971842   1.000000
   17        4.002943   1.000000
   18        4.041255   1.000000
   19        4.053711   1.000000
   20        4.109045   1.000000
   21        4.175186   1.000000
   22        4.401090   1.000000
   23        4.621303   1.000000
   24        4.650152   1.000000
   25        4.720401   1.000000
   26        4.824640   1.000000
   27        4.842509   1.000000
   28        4.927222   1.000000
   29        5.007902   1.000000
   30        5.026718   1.000000
   31        5.064903   1.000000
   32        5.158687   1.000000
   33        5.212515   1.000000
   34        5.233263   1.000000
   35        5.299022   1.000000
   36        5.337292   1.000000
   37        5.372267   1.000000
   38        5.492702   1.000000
   39        5.538873   1.000000
   40        5.553016   1.000000
   41        5.684515   1.000000
   42        5.723532   1.000000
   43        5.760300   1.000000
   44        5.787569   1.000000
   45        5.817812   1.000000
   46        5.925881   1.000000
   47        5.981371   1.000000
   48        6.077349   1.000000
   49        6.143460   1.000000
   50        6.168105   1.000000
   51        6.190524   1.000000
   52        6.292366   0.999807
   53        6.398033   0.980080
   54        6.420377   0.959019
   55        6.606898   0.184487
   56        6.672433   0.033985
   57        6.886965   0.000001
   58        6.992800   0.000000
   59        7.223297   0.000000
   60        7.260555   0.000000
   61        7.290090   0.000000
   62        7.360441   0.000000
   63        7.457629   0.000000
   64        7.530053   0.000000
   65        7.595122   0.000000
   66        7.648378   0.000000
   67        7.758927   0.000000
   68        7.821227   0.000000
 
  0.5000000E+00 -0.3106929E-16  0.3333333E+00  0.1666667E+00
    1        1.397369   1.000000
    2        1.881509   1.000000
    3        2.248957   1.000000
    4        2.564696   1.000000
    5        2.914023   1.000000
    6        2.971153   1.000000
    7        3.064318   1.000000
    8        3.165150   1.000000
    9        3.313345   1.000000
   10        3.520590   1.000000
   11        3.565108   1.000000
   12        3.613891   1.000000
   13        3.694659   1.000000
   14        3.704638   1.000000
   15        3.861979   1.000000
   16        3.892073   1.000000
   17        4.006576   1.000000
   18        4.038353   1.000000
   19        4.111079   1.000000
   20        4.325021   1.000000
   21        4.387598   1.000000
   22        4.606154   1.000000
   23        4.628999   1.000000
   24        4.677961   1.000000
   25        4.705012   1.000000
   26        4.837346   1.000000
   27        4.869574   1.000000
   28        4.932016   1.000000
   29        4.974169   1.000000
   30        5.107142   1.000000
   31        5.195513   1.000000
   32        5.260197   1.000000
   33        5.335671   1.000000
   34        5.356953   1.000000
   35        5.393791   1.000000
   36        5.427623   1.000000
   37        5.446958   1.000000
   38        5.489958   1.000000
   39        5.534390   1.000000
   40        5.668638   1.000000
   41        5.776556   1.000000
   42        5.810401   1.000000
   43        5.887171   1.000000
   44        6.005895   1.000000
   45        6.031447   1.000000
   46        6.083892   1.000000
   47        6.120655   1.000000
   48        6.145604   1.000000
   49        6.158613   1.000000
   50        6.184415   1.000000
   51        6.222390   0.999997
   52        6.256327   0.999975
   53        6.285411   0.999868
   54        6.303193   0.999659
   55        6.355754   0.996015
   56        6.451425   0.903253
   57        6.525894   0.597612
   58        6.985450   0.000000
   59        7.006375   0.000000
   60        7.164160   0.000000
   61        7.373138   0.000000
   62        7.406106   0.000000
   63        7.466016   0.000000
   64        7.498921   0.000000
   65        7.546460   0.000000
   66        7.626382   0.000000
   67        7.670524   0.000000
   68        7.781875   0.000000
 
  0.0000000E+00  0.5000000E+00  0.3333333E+00  0.1666667E+00
    1        0.989821   1.000000
    2        1.179588   1.000000
    3        2.854045   1.000000
    4        3.037686   1.000000
    5        3.134459   1.000000
    6        3.247228   1.000000
    7        3.249519   1.000000
    8        3.282588   1.000000
    9        3.450756   1.000000
   10        3.468081   1.000000
   11        3.497398   1.000000
   12        3.504695   1.000000
   13        3.738400   1.000000
   14        3.789502   1.000000
   15        3.898818   1.000000
   16        3.943064   1.000000
   17        4.057964   1.000000
   18        4.121205   1.000000
   19        4.159740   1.000000
   20        4.184645   1.000000
   21        4.224072   1.000000
   22        4.280648   1.000000
   23        4.633724   1.000000
   24        4.710037   1.000000
   25        4.788291   1.000000
   26        4.826106   1.000000
   27        4.832824   1.000000
   28        4.880975   1.000000
   29        4.936081   1.000000
   30        4.975774   1.000000
   31        5.013471   1.000000
   32        5.195794   1.000000
   33        5.235888   1.000000
   34        5.312271   1.000000
   35        5.418294   1.000000
   36        5.449737   1.000000
   37        5.563322   1.000000
   38        5.616694   1.000000
   39        5.641695   1.000000
   40        5.725156   1.000000
   41        5.773506   1.000000
   42        5.843140   1.000000
   43        5.878202   1.000000
   44        5.898725   1.000000
   45        5.965989   1.000000
   46        5.996786   1.000000
   47        6.016278   1.000000
   48        6.050413   1.000000
   49        6.080059   1.000000
   50        6.114621   1.000000
   51        6.143210   1.000000
   52        6.190359   1.000000
   53        6.245816   0.999987
   54        6.313746   0.999418
   55        6.517682   0.641809
   56        6.607132   0.183605
   57        6.640883   0.083944
   58        6.668789   0.038059
   59        7.027235   0.000000
   60        7.196818   0.000000
   61        7.298029   0.000000
   62        7.447748   0.000000
   63        7.485885   0.000000
   64        7.597374   0.000000
   65        7.716227   0.000000
   66        7.756974   0.000000
   67        7.764253   0.000000
   68        7.813927   0.000000
 
  0.5000000E+00  0.5000000E+00  0.3333333E+00  0.1666667E+00
    1        1.556732   1.000000
    2        1.798167   1.000000
    3        2.206317   1.000000
    4        2.258740   1.000000
    5        2.877683   1.000000
    6        2.982491   1.000000
    7        3.263698   1.000000
    8        3.418867   1.000000
    9        3.476363   1.000000
   10        3.562762   1.000000
   11        3.616254   1.000000
   12        3.632684   1.000000
   13        3.787443   1.000000
   14        3.809428   1.000000
   15        3.838166   1.000000
   16        3.868739   1.000000
   17        3.870150   1.000000
   18        3.938150   1.000000
   19        3.990730   1.000000
   20        4.038506   1.000000
   21        4.076501   1.000000
   22        4.116165   1.000000
   23        4.714453   1.000000
   24        4.759979   1.000000
   25        4.825278   1.000000
   26        4.927228   1.000000
   27        4.983168   1.000000
   28        5.045467   1.000000
   29        5.112638   1.000000
   30        5.148189   1.000000
   31        5.209340   1.000000
   32        5.287768   1.000000
   33        5.338836   1.000000
   34        5.393681   1.000000
   35        5.459308   1.000000
   36        5.482710   1.000000
   37        5.514212   1.000000
   38        5.559782   1.000000
   39        5.603696   1.000000
   40        5.628407   1.000000
   41        5.711285   1.000000
   42        5.835868   1.000000
   43        5.898190   1.000000
   44        5.930599   1.000000
   45        5.993290   1.000000
   46        6.045928   1.000000
   47        6.060546   1.000000
   48        6.125442   1.000000
   49        6.188110   1.000000
   50        6.233174   0.999994
   51        6.314849   0.999385
   52        6.377558   0.990485
   53        6.407692   0.972495
   54        6.489080   0.778696
   55        6.550131   0.461923
   56        6.656940   0.054126
   57        6.717836   0.006807
   58        6.739180   0.002810
   59        6.839703   0.000014
   60        6.984389   0.000000
   61        7.027452   0.000000
   62        7.092912   0.000000
   63        7.307566   0.000000
   64        7.444825   0.000000
   65        7.473622   0.000000
   66        7.519678   0.000000
   67        7.619833   0.000000
   68        7.673018   0.000000
