       N       E                     dE             d eps       ncg     rms          rms(c)
DAV:   1     0.622333505906E+03    0.62233E+03   -0.22542E+04  1088   0.108E+03
DAV:   2    -0.791165743900E+02   -0.70145E+03   -0.67847E+03  1088   0.341E+02
DAV:   3    -0.196333647810E+03   -0.11722E+03   -0.11053E+03  1824   0.146E+02
DAV:   4    -0.208095103995E+03   -0.11761E+02   -0.11137E+02  1744   0.608E+01
DAV:   5    -0.208691229686E+03   -0.59613E+00   -0.58500E+00  1752   0.112E+01    0.572E+01
DAV:   6    -0.232913586471E+03   -0.24222E+02   -0.49166E+02  1944   0.182E+02    0.875E+01
DAV:   7    -0.182401699167E+03    0.50512E+02   -0.40786E+02  2040   0.129E+02    0.247E+01
DAV:   8    -0.196542634272E+03   -0.14141E+02   -0.19917E+02  2168   0.102E+02    0.447E+01
DAV:   9    -0.180555282470E+03    0.15987E+02   -0.13568E+02  2176   0.905E+01    0.194E+01
DAV:  10    -0.179157198834E+03    0.13981E+01   -0.13630E+01  2152   0.277E+01    0.115E+01
DAV:  11    -0.179032125165E+03    0.12507E+00   -0.14290E+00  1904   0.971E+00    0.102E+01
DAV:  12    -0.179234194397E+03   -0.20207E+00   -0.27719E+00  2056   0.138E+01    0.109E+01
DAV:  13    -0.178945525893E+03    0.28867E+00   -0.52592E+00  1752   0.149E+01    0.885E+00
DAV:  14    -0.178721027712E+03    0.22450E+00   -0.12120E+00  2176   0.839E+00    0.556E+00
DAV:  15    -0.178611136055E+03    0.10989E+00   -0.49624E-01  2168   0.605E+00    0.383E+00
DAV:  16    -0.178596036556E+03    0.15099E-01   -0.10824E-01  1880   0.261E+00    0.285E+00
DAV:  17    -0.178580503096E+03    0.15533E-01   -0.95447E-02  1968   0.249E+00    0.223E+00
DAV:  18    -0.178579175313E+03    0.13278E-02   -0.74664E-02  1984   0.265E+00    0.207E+00
DAV:  19    -0.178559864362E+03    0.19311E-01   -0.53639E-02  2000   0.216E+00    0.103E+00
DAV:  20    -0.178558037436E+03    0.18269E-02   -0.94715E-03  1704   0.692E-01    0.786E-01
DAV:  21    -0.178555110678E+03    0.29268E-02   -0.83334E-03  1960   0.656E-01    0.371E-01
DAV:  22    -0.178554839553E+03    0.27112E-03   -0.63151E-03  2056   0.536E-01    0.203E-01
DAV:  23    -0.178554495011E+03    0.34454E-03   -0.28041E-03  1720   0.376E-01    0.553E-02
DAV:  24    -0.178554514701E+03   -0.19690E-04   -0.32705E-04  1744   0.135E-01    0.470E-02
DAV:  25    -0.178554515070E+03   -0.36931E-06   -0.18746E-04  1760   0.105E-01    0.522E-02
DAV:  26    -0.178554500662E+03    0.14408E-04   -0.71925E-05  1448   0.666E-02    0.140E-02
DAV:  27    -0.178554499554E+03    0.11080E-05   -0.89388E-06   728   0.302E-02
   1 F= -.17855450E+03 E0= -.17849834E+03  d E =-.178554E+03
       N       E                     dE             d eps       ncg     rms          rms(c)
DAV:   1    -0.181474739946E+03   -0.29202E+01   -0.62652E+01  1088   0.681E+01    0.209E+01
DAV:   2    -0.227353699630E+03   -0.45879E+02   -0.23720E+02  2032   0.179E+02    0.757E+01
DAV:   3    -0.182639420845E+03    0.44714E+02   -0.12517E+02  1992   0.760E+01    0.245E+01
DAV:   4    -0.179747024883E+03    0.28924E+01   -0.37472E+01  2160   0.558E+01    0.131E+01
DAV:   5    -0.178997483760E+03    0.74954E+00   -0.13224E+01  2064   0.326E+01    0.944E+00
DAV:   6    -0.178869358504E+03    0.12813E+00   -0.43242E+00  2040   0.199E+01    0.718E+00
DAV:   7    -0.178532425579E+03    0.33693E+00   -0.24192E+00  2072   0.150E+01    0.408E+00
DAV:   8    -0.178524387412E+03    0.80382E-02   -0.30917E-01  1944   0.477E+00    0.379E+00
DAV:   9    -0.178510824628E+03    0.13563E-01   -0.55869E-02  1888   0.229E+00    0.338E+00
DAV:  10    -0.178495173311E+03    0.15651E-01   -0.43426E-02  2112   0.184E+00    0.289E+00
DAV:  11    -0.178467597848E+03    0.27575E-01   -0.60945E-02  2128   0.234E+00    0.174E+00
DAV:  12    -0.178459480259E+03    0.81176E-02   -0.29022E-02  1984   0.153E+00    0.122E+00
DAV:  13    -0.178458124356E+03    0.13559E-02   -0.62827E-03  1848   0.549E-01    0.935E-01
DAV:  14    -0.178457350998E+03    0.77336E-03   -0.21951E-03  1736   0.347E-01    0.823E-01
DAV:  15    -0.178455244716E+03    0.21063E-02   -0.27117E-03  2144   0.443E-01    0.473E-01
DAV:  16    -0.178454728812E+03    0.51590E-03   -0.12119E-03  2080   0.247E-01    0.334E-01
DAV:  17    -0.178454268043E+03    0.46077E-03   -0.10817E-03  2160   0.266E-01    0.111E-01
DAV:  18    -0.178454265689E+03    0.23536E-05   -0.15086E-04  1512   0.919E-02    0.949E-02
DAV:  19    -0.178454237275E+03    0.28414E-04   -0.29686E-05   968   0.580E-02    0.403E-02
DAV:  20    -0.178454237791E+03   -0.51532E-06   -0.33308E-05  1072   0.366E-02
   2 F= -.17845424E+03 E0= -.17840751E+03  d E =0.100262E+00
       N       E                     dE             d eps       ncg     rms          rms(c)
DAV:   1    -0.179666673440E+03   -0.12124E+01   -0.20190E+01  1088   0.395E+01    0.126E+01
DAV:   2    -0.206312765165E+03   -0.26646E+02   -0.16164E+02  1944   0.118E+02    0.544E+01
DAV:   3    -0.178073122708E+03    0.28240E+02   -0.70116E+01  2016   0.554E+01    0.412E+00
DAV:   4    -0.178964593702E+03   -0.89147E+00   -0.10515E+01  1880   0.198E+01    0.501E+00
DAV:   5    -0.178729880883E+03    0.23471E+00   -0.26307E+00  2032   0.146E+01    0.191E+00
DAV:   6    -0.178791949834E+03   -0.62069E-01   -0.84698E-01  2152   0.833E+00    0.356E+00
DAV:   7    -0.178703349421E+03    0.88600E-01   -0.51036E-01  2128   0.655E+00    0.152E+00
DAV:   8    -0.178692708683E+03    0.10641E-01   -0.10097E-01  2080   0.288E+00    0.953E-01
DAV:   9    -0.178688949486E+03    0.37592E-02   -0.27438E-02  2064   0.146E+00    0.588E-01
DAV:  10    -0.178686689733E+03    0.22598E-02   -0.17280E-02  1776   0.105E+00    0.339E-01
DAV:  11    -0.178686717255E+03   -0.27522E-04   -0.42557E-03  1760   0.489E-01    0.265E-01
DAV:  12    -0.178686318676E+03    0.39858E-03   -0.20534E-03  1720   0.330E-01    0.173E-01
DAV:  13    -0.178686277154E+03    0.41522E-04   -0.14113E-03  1832   0.309E-01    0.133E-01
DAV:  14    -0.178686203766E+03    0.73388E-04   -0.62764E-04  1824   0.258E-01    0.494E-02
DAV:  15    -0.178686207827E+03   -0.40608E-05   -0.20740E-04  1992   0.110E-01    0.403E-02
DAV:  16    -0.178686197951E+03    0.98763E-05   -0.97415E-05  1560   0.744E-02
   3 F= -.17868620E+03 E0= -.17863413E+03  d E =-.131698E+00
       N       E                     dE             d eps       ncg     rms          rms(c)
DAV:   1    -0.178697979065E+03   -0.11771E-01   -0.36547E-01  1088   0.260E+00    0.481E-01
DAV:   2    -0.178701554850E+03   -0.35758E-02   -0.44766E-02  2168   0.175E+00    0.102E+00
DAV:   3    -0.178695738398E+03    0.58165E-02   -0.39674E-02  2168   0.193E+00    0.455E-01
DAV:   4    -0.178698683187E+03   -0.29448E-02   -0.32530E-02  2176   0.157E+00    0.751E-01
DAV:   5    -0.178694072151E+03    0.46110E-02   -0.22184E-02  2176   0.139E+00    0.219E-01
DAV:   6    -0.178693768574E+03    0.30358E-03   -0.27801E-03  2040   0.496E-01    0.570E-02
DAV:   7    -0.178693780091E+03   -0.11518E-04   -0.52430E-04  2000   0.191E-01    0.573E-02
DAV:   8    -0.178693738730E+03    0.41361E-04   -0.27660E-04  1712   0.127E-01    0.133E-02
DAV:   9    -0.178693742535E+03   -0.38049E-05   -0.62430E-05  1344   0.606E-02
   4 F= -.17869374E+03 E0= -.17864141E+03  d E =-.754458E-02
       N       E                     dE             d eps       ncg     rms          rms(c)
DAV:   1    -0.178701239895E+03   -0.75012E-02   -0.43244E-01  1088   0.283E+00    0.526E-01
DAV:   2    -0.178705429739E+03   -0.41898E-02   -0.54470E-02  2168   0.189E+00    0.109E+00
DAV:   3    -0.178698630085E+03    0.67997E-02   -0.48149E-02  2168   0.210E+00    0.507E-01
DAV:   4    -0.178702331774E+03   -0.37017E-02   -0.40719E-02  2176   0.175E+00    0.840E-01
DAV:   5    -0.178696686234E+03    0.56455E-02   -0.27402E-02  2160   0.155E+00    0.265E-01
DAV:   6    -0.178696217247E+03    0.46899E-03   -0.36734E-03  2024   0.577E-01    0.609E-02
DAV:   7    -0.178696245291E+03   -0.28044E-04   -0.74847E-04  1984   0.220E-01    0.670E-02
DAV:   8    -0.178696188761E+03    0.56530E-04   -0.35476E-04  1760   0.148E-01    0.155E-02
DAV:   9    -0.178696195459E+03   -0.66976E-05   -0.10111E-04  1552   0.726E-02    0.272E-02
DAV:  10    -0.178696185659E+03    0.97996E-05   -0.35963E-05  1072   0.566E-02
   5 F= -.17869619E+03 E0= -.17864339E+03  d E =-.998771E-02
       N       E                     dE             d eps       ncg     rms          rms(c)
DAV:   1    -0.178696232595E+03   -0.37136E-04   -0.23256E-03  1112   0.209E-01    0.388E-02
DAV:   2    -0.178696278456E+03   -0.45861E-04   -0.38351E-04  2128   0.180E-01    0.101E-01
DAV:   3    -0.178696216024E+03    0.62433E-04   -0.32014E-04  2080   0.181E-01    0.327E-02
DAV:   4    -0.178696239322E+03   -0.23299E-04   -0.20675E-04  2064   0.125E-01    0.671E-02
DAV:   5    -0.178696210012E+03    0.29310E-04   -0.14857E-04  2024   0.125E-01    0.258E-02
DAV:   6    -0.178696203253E+03    0.67592E-05   -0.18887E-05   752   0.539E-02
   6 F= -.17869620E+03 E0= -.17864344E+03  d E =-.100053E-01
       N       E                     dE             d eps       ncg     rms          rms(c)
DAV:   1    -0.178699039401E+03   -0.28294E-02   -0.11538E-01  1088   0.138E+00    0.256E-01
DAV:   2    -0.178699173955E+03   -0.13455E-03   -0.11747E-02  2128   0.767E-01    0.379E-01
DAV:   3    -0.178698611151E+03    0.56280E-03   -0.11025E-02  2176   0.904E-01    0.311E-01
DAV:   4    -0.178699180911E+03   -0.56976E-03   -0.89796E-03  2176   0.868E-01    0.393E-01
DAV:   5    -0.178697881862E+03    0.12990E-02   -0.73098E-03  2176   0.714E-01    0.120E-01
DAV:   6    -0.178697806457E+03    0.75405E-04   -0.80325E-04  1952   0.279E-01    0.449E-02
DAV:   7    -0.178697810062E+03   -0.36049E-05   -0.22846E-04  2112   0.140E-01    0.418E-02
DAV:   8    -0.178697789429E+03    0.20632E-04   -0.11231E-04  1560   0.865E-02    0.971E-03
DAV:   9    -0.178697789665E+03   -0.23556E-06   -0.13186E-05   640   0.404E-02
   7 F= -.17869779E+03 E0= -.17864482E+03  d E =-.158641E-02
       N       E                     dE             d eps       ncg     rms          rms(c)
DAV:   1    -0.178700459338E+03   -0.26699E-02   -0.18611E-01  1088   0.175E+00    0.325E-01
DAV:   2    -0.178700600520E+03   -0.14118E-03   -0.18685E-02  2112   0.951E-01    0.465E-01
DAV:   3    -0.178699771954E+03    0.82857E-03   -0.17732E-02  2176   0.113E+00    0.392E-01
DAV:   4    -0.178700767236E+03   -0.99528E-03   -0.14503E-02  2176   0.111E+00    0.515E-01
DAV:   5    -0.178698620090E+03    0.21471E-02   -0.11947E-02  2176   0.918E-01    0.162E-01
DAV:   6    -0.178698476579E+03    0.14351E-03   -0.13625E-03  1952   0.366E-01    0.557E-02
DAV:   7    -0.178698489240E+03   -0.12662E-04   -0.39859E-04  2096   0.186E-01    0.582E-02
DAV:   8    -0.178698453890E+03    0.35350E-04   -0.20817E-04  1960   0.119E-01    0.142E-02
DAV:   9    -0.178698452867E+03    0.10231E-05   -0.13741E-05   696   0.490E-02
   8 F= -.17869845E+03 E0= -.17864525E+03  d E =-.224961E-02
       N       E                     dE             d eps       ncg     rms          rms(c)
DAV:   1    -0.178699040559E+03   -0.58667E-03   -0.40777E-02  1104   0.869E-01    0.212E-01
DAV:   2    -0.178707163103E+03   -0.81225E-02   -0.40566E-02  2176   0.190E+00    0.119E+00
DAV:   3    -0.178698824165E+03    0.83389E-02   -0.29673E-02  2176   0.164E+00    0.137E-01
DAV:   4    -0.178698875038E+03   -0.50873E-04   -0.26796E-03  1856   0.467E-01    0.139E-01
DAV:   5    -0.178698879990E+03   -0.49516E-05   -0.13796E-03  1808   0.407E-01    0.125E-01
DAV:   6    -0.178698731496E+03    0.14849E-03   -0.99864E-04  1904   0.278E-01    0.321E-02
DAV:   7    -0.178698742324E+03   -0.10827E-04   -0.20834E-04  1888   0.114E-01    0.407E-02
DAV:   8    -0.178698723174E+03    0.19149E-04   -0.92952E-05  1424   0.799E-02    0.962E-03
DAV:   9    -0.178698723917E+03   -0.74311E-06   -0.20106E-05   684   0.416E-02
   9 F= -.17869872E+03 E0= -.17864554E+03  d E =-.271051E-03
       N       E                     dE             d eps       ncg     rms          rms(c)
DAV:   1    -0.178698807502E+03   -0.84327E-04   -0.73137E-03  1108   0.369E-01    0.880E-02
DAV:   2    -0.178700167080E+03   -0.13596E-02   -0.69904E-03  2160   0.780E-01    0.485E-01
DAV:   3    -0.178698772027E+03    0.13951E-02   -0.50073E-03  2160   0.674E-01    0.596E-02
DAV:   4    -0.178698779341E+03   -0.73137E-05   -0.48715E-04  1880   0.198E-01    0.586E-02
DAV:   5    -0.178698781304E+03   -0.19630E-05   -0.24796E-04  1768   0.175E-01    0.543E-02
DAV:   6    -0.178698754069E+03    0.27235E-04   -0.18947E-04  1784   0.121E-01    0.136E-02
DAV:   7    -0.178698754436E+03   -0.36780E-06   -0.21598E-05   744   0.514E-02
  10 F= -.17869875E+03 E0= -.17864557E+03  d E =-.301570E-03
       N       E                     dE             d eps       ncg     rms          rms(c)
DAV:   1    -0.178699475183E+03   -0.72111E-03   -0.33076E-02  1152   0.116E+00    0.360E-01
DAV:   2    -0.178727625946E+03   -0.28151E-01   -0.12291E-01  2168   0.342E+00    0.223E+00
DAV:   3    -0.178698773131E+03    0.28853E-01   -0.98813E-02  2168   0.299E+00    0.215E-01
DAV:   4    -0.178698974566E+03   -0.20143E-03   -0.62926E-03  1784   0.702E-01    0.193E-01
DAV:   5    -0.178698876422E+03    0.98143E-04   -0.18895E-03  1776   0.457E-01    0.105E-01
DAV:   6    -0.178698774194E+03    0.10223E-03   -0.92828E-04  1928   0.247E-01    0.492E-02
DAV:   7    -0.178698782135E+03   -0.79410E-05   -0.27717E-04  1800   0.139E-01    0.477E-02
DAV:   8    -0.178698753191E+03    0.28944E-04   -0.14064E-04  1608   0.938E-02    0.116E-02
DAV:   9    -0.178698755720E+03   -0.25295E-05   -0.46888E-05  1100   0.523E-02
  11 F= -.17869876E+03 E0= -.17864544E+03  d E =-.128372E-05
       N       E                     dE             d eps       ncg     rms          rms(c)
DAV:   1    -0.178698939194E+03   -0.18600E-03   -0.70123E-03  1144   0.532E-01    0.165E-01
DAV:   2    -0.178704997971E+03   -0.60588E-02   -0.26274E-02  2168   0.158E+00    0.104E+00
DAV:   3    -0.178698800123E+03    0.61978E-02   -0.21450E-02  2168   0.140E+00    0.968E-02
DAV:   4    -0.178698843034E+03   -0.42911E-04   -0.13363E-03  1816   0.321E-01    0.846E-02
DAV:   5    -0.178698825386E+03    0.17649E-04   -0.34070E-04  1760   0.196E-01    0.446E-02
DAV:   6    -0.178698808245E+03    0.17140E-04   -0.15877E-04  1560   0.107E-01    0.240E-02
DAV:   7    -0.178698807881E+03    0.36461E-06   -0.33481E-05   880   0.613E-02
  12 F= -.17869881E+03 E0= -.17864555E+03  d E =-.534443E-04
