 vasp.5.4.4.18Apr17-6-g9f103f2a35 (build Jul 11 2019 11:52:51) complex          
  
 executed on             LinuxIFC date 2023.11.29  16:42:10
 running on    4 total cores
 distrk:  each k-point on    4 cores,    1 groups
 distr:  one band on NCORES_PER_BAND=   1 cores,    4 groups


--------------------------------------------------------------------------------------------------------


 INCAR:
 POTCAR:    PAW_PBE V 08Apr2002                   
 POTCAR:    PAW_PBE Fe 06Sep2000                  
 POTCAR:    PAW_PBE V 08Apr2002                   
   VRHFIN =V: p6 d4 s1                                                          
   LEXCH  = PE                                                                  
   EATOM  =   170.8679 eV,   12.5584 Ry                                         
                                                                                
   TITEL  = PAW_PBE V 08Apr2002                                                 
   LULTRA =        F    use ultrasoft PP ?                                      
   IUNSCR =        1    unscreen: 0-lin 1-nonlin 2-no                           
   RPACOR =    2.000    partial core radius                                     
   POMASS =   50.941; ZVAL   =    5.000    mass and valenz                      
   RCORE  =    2.700    outmost cutoff radius                                   
   RWIGS  =    2.500; RWIGS  =    1.323    wigner-seitz radius (au A)           
   ENMAX  =  192.543; ENMIN  =  144.408 eV                                      
   RCLOC  =    1.779    cutoff for local pot                                    
   LCOR   =        T    correct aug charges                                     
   LPAW   =        T    paw PP                                                  
   EAUG   =  358.662                                                            
   DEXC   =    0.000                                                            
   RMAX   =    2.768    core radius for proj-oper                               
   RAUG   =    1.300    factor for augmentation sphere                          
   RDEP   =    2.762    radius for radial grids                                 
   RDEPT  =    2.240    core radius for aug-charge                              
                                                                                
   Atomic configuration                                                         
    9 entries                                                                   
     n  l   j            E        occ.                                          
     1  0  0.50     -5360.7193   2.0000                                         
     2  0  0.50      -598.4546   2.0000                                         
     2  1  1.50      -499.0155   6.0000                                         
     3  0  0.50       -66.5711   2.0000                                         
     3  1  1.50       -40.5282   6.0000                                         
     3  2  2.50        -2.4291   4.0000                                         
     4  0  0.50        -3.8743   1.0000                                         
     4  1  0.50        -2.7212   0.0000                                         
     4  3  2.50        -1.3606   0.0000                                         
   Description                                                                  
     l       E           TYP  RCUT    TYP  RCUT                                 
     2     -2.4290901     23  2.700                                             
     2     -3.7896727     23  2.700                                             
     0     -3.8742752     23  2.700                                             
     0     27.2116520     23  2.700                                             
     1     -2.7211652     23  2.700                                             
     1     27.2116520     23  2.700                                             
  local pseudopotential read in
  partial core-charges read in
  partial kinetic energy density read in
  atomic valenz-charges read in
  non local Contribution for L=           2  read in
    real space projection operators read in
  non local Contribution for L=           2  read in
    real space projection operators read in
  non local Contribution for L=           0  read in
    real space projection operators read in
  non local Contribution for L=           0  read in
    real space projection operators read in
  non local Contribution for L=           1  read in
    real space projection operators read in
  non local Contribution for L=           1  read in
    real space projection operators read in
    PAW grid and wavefunctions read in
 
   number of l-projection  operators is LMAX  =           6
   number of lm-projection operators is LMMAX =          18
 
 POTCAR:    PAW_PBE Fe 06Sep2000                  
   VRHFIN =Fe:  d7 s1                                                           
   LEXCH  = PE                                                                  
   EATOM  =   594.3153 eV,   43.6809 Ry                                         
                                                                                
   TITEL  = PAW_PBE Fe 06Sep2000                                                
   LULTRA =        F    use ultrasoft PP ?                                      
   IUNSCR =        1    unscreen: 0-lin 1-nonlin 2-no                           
   RPACOR =    2.000    partial core radius                                     
   POMASS =   55.847; ZVAL   =    8.000    mass and valenz                      
   RCORE  =    2.300    outmost cutoff radius                                   
   RWIGS  =    2.460; RWIGS  =    1.302    wigner-seitz radius (au A)           
   ENMAX  =  267.882; ENMIN  =  200.911 eV                                      
   RCLOC  =    1.701    cutoff for local pot                                    
   LCOR   =        T    correct aug charges                                     
   LPAW   =        T    paw PP                                                  
   EAUG   =  511.368                                                            
   DEXC   =    0.000                                                            
   RMAX   =    2.356    core radius for proj-oper                               
   RAUG   =    1.300    factor for augmentation sphere                          
   RDEP   =    2.442    radius for radial grids                                 
   RDEPT  =    1.890    core radius for aug-charge                              
                                                                                
   Atomic configuration                                                         
    9 entries                                                                   
     n  l   j            E        occ.                                          
     1  0  0.50     -6993.8440   2.0000                                         
     2  0  0.50      -814.6047   2.0000                                         
     2  1  1.50      -693.3689   6.0000                                         
     3  0  0.50       -89.4732   2.0000                                         
     3  1  1.50       -55.6373   6.0000                                         
     3  2  2.50        -3.8151   7.0000                                         
     4  0  0.50        -4.2551   1.0000                                         
     4  1  1.50        -3.4015   0.0000                                         
     4  3  2.50        -1.3606   0.0000                                         
   Description                                                                  
     l       E           TYP  RCUT    TYP  RCUT                                 
     2     -3.8151135     23  2.300                                             
     2     -5.1756961     23  2.300                                             
     0     -4.2550963     23  2.300                                             
     0      7.2035603     23  2.300                                             
     1     -2.7211652     23  2.300                                             
     1     18.4316424     23  2.300                                             
  local pseudopotential read in
  partial core-charges read in
  partial kinetic energy density read in
  atomic valenz-charges read in
  non local Contribution for L=           2  read in
    real space projection operators read in
  non local Contribution for L=           2  read in
    real space projection operators read in
  non local Contribution for L=           0  read in
    real space projection operators read in
  non local Contribution for L=           0  read in
    real space projection operators read in
  non local Contribution for L=           1  read in
    real space projection operators read in
  non local Contribution for L=           1  read in
    real space projection operators read in
    PAW grid and wavefunctions read in
 
   number of l-projection  operators is LMAX  =           6
   number of lm-projection operators is LMMAX =          18
 

 ----------------------------------------------------------------------------- 
|                                                                             |
|  ADVICE TO THIS USER RUNNING 'VASP/VAMP'   (HEAR YOUR MASTER'S VOICE ...):  |
|                                                                             |
|      You have a (more or less) 'large supercell' and for larger cells       |
|      it might be more efficient to use real space projection opertators     |
|      So try LREAL= Auto  in the INCAR   file.                               |
|      Mind:          For very  accurate calculation you might also keep the  |
|      reciprocal projection scheme          (i.e. LREAL=.FALSE.)             |
|                                                                             |
 ----------------------------------------------------------------------------- 

  PAW_PBE V 08Apr2002                   :
 energy of atom  1       EATOM= -170.8679
 kinetic energy error for atom=    0.0066 (will be added to EATOM!!)
  PAW_PBE Fe 06Sep2000                  :
 energy of atom  2       EATOM= -594.3153
 kinetic energy error for atom=    0.0346 (will be added to EATOM!!)
 
 
 POSCAR: EA0     6.363  9.740  4.252 90.03 89.99 
  positions in direct lattice
  No initial velocities read in
 exchange correlation table for  LEXCH =        8
   RHO(1)=    0.500       N(1)  =     2000
   RHO(2)=  100.500       N(2)  =     4000
 


--------------------------------------------------------------------------------------------------------


 ion  position               nearest neighbor table
   1  0.324  0.768  0.481-   8 2.52   6 2.53   2 2.54  20 2.58   4 2.59  20 2.59  10 2.62  10 2.62
                            17 2.91  17 2.92   9 2.93  13 2.94  13 2.94   5 3.03
   2  0.721  0.869  0.482-   6 2.51   4 2.52   9 2.53   1 2.54  15 2.57  17 2.58  15 2.58  17 2.59
                             7 2.96  20 2.97  20 2.97  13 2.98  13 2.99   8 3.05
   3  0.705  0.362  0.482-   8 2.48  18 2.51   7 2.53  16 2.53  16 2.54  12 2.60  12 2.62   5 2.64
                            19 2.92   9 2.93  19 2.93  14 3.01  14 3.02   4 3.02
   4  0.919  0.666  0.480-   2 2.52   5 2.57   1 2.59   8 2.61  12 2.61  12 2.61  13 2.61  13 2.62
                             6 2.96  10 2.97  10 2.97  17 2.98  17 2.98   3 3.02
   5  0.120  0.461  0.481-  18 2.48   8 2.50  14 2.54  14 2.55   4 2.57  10 2.60  10 2.61   3 2.64
                             7 2.90  19 2.92  19 2.93  12 3.00  12 3.01   1 3.03
   6  0.115  0.966  0.484-   2 2.51   7 2.51   1 2.53   9 2.53  13 2.56  13 2.57  11 2.63  11 2.63
                            18 2.93   4 2.96  20 2.96  20 2.96  15 2.98  15 2.98
   7  0.921  0.169  0.485-  18 2.50   6 2.51   3 2.53  14 2.60  15 2.61  15 2.61  14 2.61   9 2.61
                             5 2.90  11 2.96  11 2.96   2 2.96  16 3.00  16 3.01
   8  0.511  0.561  0.481-   3 2.48   5 2.50   1 2.52  19 2.53  19 2.54   4 2.61  17 2.65  17 2.65
                            10 2.92  10 2.93  12 2.95  12 2.95  18 2.96   2 3.05
   9  0.511  0.066  0.485-  18 2.47   2 2.53   6 2.53  20 2.57  20 2.58   7 2.61  16 2.63  16 2.63
                            11 2.92  11 2.92   3 2.93   1 2.93  15 2.95  15 2.95
  10  0.220  0.613  0.981-  19 2.44  13 2.53  17 2.55   5 2.60  12 2.61   5 2.61   1 2.62   1 2.62
                            14 2.90   8 2.92   8 2.93   4 2.97   4 2.97  20 3.00
  11  0.223  0.122  0.985-  16 2.49  14 2.50  20 2.52  18 2.53  18 2.54   6 2.63  15 2.63   6 2.63
                             9 2.92   9 2.92  19 2.96   7 2.96   7 2.96  13 2.98
  12  0.811  0.515  0.981-  19 2.50  14 2.52  17 2.55   3 2.60  10 2.61   4 2.61   4 2.61   3 2.62
                            16 2.89   8 2.95   8 2.95   5 3.00   5 3.01  13 3.03
  13  0.028  0.819  0.982-  20 2.49  10 2.53   6 2.56   6 2.57  15 2.57   4 2.61  17 2.62   4 2.62
                             1 2.94   1 2.94  11 2.98   2 2.98   2 2.99  12 3.03
  14  0.023  0.320  0.983-  11 2.50  12 2.52  19 2.53   5 2.54   5 2.55   7 2.60   7 2.61  16 2.61
                            10 2.90  18 2.94  18 2.94  15 3.01   3 3.01   3 3.02
  15  0.811  0.018  0.984-  20 2.52  16 2.55   2 2.57  13 2.57   2 2.58   7 2.61   7 2.61  11 2.63
                            17 2.92   9 2.95   9 2.95   6 2.98   6 2.98  14 3.01
  16  0.612  0.223  0.984-  19 2.47  11 2.49   3 2.53   3 2.54  15 2.55  14 2.61   9 2.63   9 2.63
                            12 2.89  18 2.92  18 2.93  20 3.00   7 3.00   7 3.01
  17  0.616  0.722  0.981-  20 2.48  10 2.55  12 2.55   2 2.58   2 2.59  13 2.62   8 2.65   8 2.65
                             1 2.91   1 2.92  15 2.92  19 2.97   4 2.98   4 2.98
  18  0.313  0.262  0.483-   9 2.47   5 2.48   7 2.50   3 2.51  11 2.53  11 2.54  19 2.64  19 2.65
                            16 2.92  16 2.93   6 2.93  14 2.94  14 2.94   8 2.96
  19  0.419  0.421  0.982-  10 2.44  16 2.47  12 2.50  14 2.53   8 2.53   8 2.54  18 2.64  18 2.65
                             5 2.92   3 2.92   5 2.93   3 2.93  11 2.96  17 2.97
  20  0.417  0.918  0.983-  17 2.48  13 2.49  15 2.52  11 2.52   9 2.57   1 2.58   9 2.58   1 2.59
                             6 2.96   6 2.96   2 2.97   2 2.97  10 3.00  16 3.00
 
  LATTYP: Found a triclinic cell.
 ALAT       =    15.1511727574
 B/A-ratio  =     0.4199831988
 C/A-ratio  =     0.2806080276
 COS(alpha) =     0.0001168988
 COS(beta)  =     0.2803364322
 COS(gamma) =     0.7224781326
  
  Lattice vectors:
  
 A1 = ( -10.9463910000,  -9.5738690000,  -4.2515400000)
 A2 = (  -6.3632380000,   0.0000000000,   0.0000000000)
 A3 = (  -0.0004970000,   0.0023950000,  -4.2515400000)


Analysis of symmetry for initial positions (statically):
=====================================================================
 Subroutine PRICEL returns:
 Original cell was already a primitive cell.
 

 Routine SETGRP: Setting up the symmetry group for a 
 triclinic supercell.


 Subroutine GETGRP returns: Found  1 space group operations
 (whereof  1 operations were pure point group operations)
 out of a pool of  2 trial point group operations.


The static configuration has the point symmetry C_1 .


Analysis of symmetry for dynamics (positions and initial velocities):
=====================================================================
 Subroutine PRICEL returns:
 Original cell was already a primitive cell.
 

 Routine SETGRP: Setting up the symmetry group for a 
 triclinic supercell.


 Subroutine GETGRP returns: Found  1 space group operations
 (whereof  1 operations were pure point group operations)
 out of a pool of  2 trial point group operations.


The dynamic configuration has the point symmetry C_1 .


 Subroutine INISYM returns: Found  1 space group operations
 (whereof  1 operations are pure point group operations),
 and found     1 'primitive' translations

 
 
 KPOINTS: EA                                      

Automatic generation of k-mesh.
Space group operators:
 irot       det(A)        alpha          n_x          n_y          n_z        tau_x        tau_y        tau_z
    1     1.000000     0.000000     1.000000     0.000000     0.000000     0.000000     0.000000     0.000000
 
 Subroutine IBZKPT returns following result:
 ===========================================
 
 Found      8 irreducible k-points:
 
 Following reciprocal coordinates:
            Coordinates               Weight
  0.000000  0.000000  0.000000      1.000000
  0.500000 -0.000000 -0.000000      1.000000
  0.000000  0.500000 -0.000000      1.000000
  0.500000  0.500000  0.000000      1.000000
  0.000000  0.000000  0.333333      2.000000
  0.500000 -0.000000  0.333333      2.000000
  0.000000  0.500000  0.333333      2.000000
  0.500000  0.500000  0.333333      2.000000
 
 Following cartesian coordinates:
            Coordinates               Weight
  0.000000  0.000000  0.000000      1.000000
  0.078576  0.014610 -0.000001      1.000000
  0.000000  0.052212  0.000029      1.000000
  0.078576  0.066823  0.000028      1.000000
  0.000000  0.000000  0.078403      2.000000
  0.078576  0.014610  0.078402      2.000000
  0.000000  0.052212  0.078432      2.000000
  0.078576  0.066823  0.078431      2.000000
 


--------------------------------------------------------------------------------------------------------




 Dimension of arrays:
   k-points           NKPTS =      8   k-points in BZ     NKDIM =      8   number of bands    NBANDS=     68
   number of dos      NEDOS =    301   number of ions     NIONS =     20
   non local maximal  LDIM  =      6   non local SUM 2l+1 LMDIM =     18
   total plane-waves  NPLWV =  20160
   max r-space proj   IRMAX =      1   max aug-charges    IRDMAX=   4918
   dimension x,y,z NGX =    28 NGY =   40 NGZ =   18
   dimension x,y,z NGXF=    56 NGYF=   80 NGZF=   36
   support grid    NGXF=    56 NGYF=   80 NGZF=   36
   ions per type =              17   3
   NGX,Y,Z   is equivalent  to a cutoff of   7.32,  6.83,  7.04 a.u.
   NGXF,Y,Z  is equivalent  to a cutoff of  14.63, 13.65, 14.08 a.u.

 SYSTEM =  unknown system                          
 POSCAR =  EA0     6.363  9.740  4.252 90.03 89.99 

 Startparameter for this run:
   NWRITE =      2    write-flag & timer
   PREC   = normal    normal or accurate (medium, high low for compatibility)
   ISTART =      0    job   : 0-new  1-cont  2-samecut
   ICHARG =      2    charge: 1-file 2-atom 10-const
   ISPIN  =      1    spin polarized calculation?
   LNONCOLLINEAR =      F non collinear calculations
   LSORBIT =      F    spin-orbit coupling
   INIWAV =      1    electr: 0-lowe 1-rand  2-diag
   LASPH  =      F    aspherical Exc in radial PAW
   METAGGA=      F    non-selfconsistent MetaGGA calc.

 Electronic Relaxation 1
   ENCUT  =  267.9 eV  19.69 Ry    4.44 a.u.   8.49 13.00  5.67*2*pi/ulx,y,z
   ENINI  =  267.9     initial cutoff
   ENAUG  =  511.4 eV  augmentation charge cutoff
   NELM   =     60;   NELMIN=  2; NELMDL= -5     # of ELM steps 
   EDIFF  = 0.1E-04   stopping-criterion for ELM
   LREAL  =      F    real-space projection
   NLSPLINE    = F    spline interpolate recip. space projectors
   LCOMPAT=      F    compatible to vasp.4.4
   GGA_COMPAT  = T    GGA compatible to vasp.4.4-vasp.4.6
   LMAXPAW     = -100 max onsite density
   LMAXMIX     =    2 max onsite mixed and CHGCAR
   VOSKOWN=      0    Vosko Wilk Nusair interpolation
   ROPT   =    0.00000   0.00000
 Ionic relaxation
   EDIFFG = -.1E-01   stopping-criterion for IOM
   NSW    =    500    number of steps for IOM
   NBLOCK =      1;   KBLOCK =    500    inner block; outer block 
   IBRION =      2    ionic relax: 0-MD 1-quasi-New 2-CG
   NFREE  =      1    steps in history (QN), initial steepest desc. (CG)
   ISIF   =      3    stress and relaxation
   IWAVPR =     11    prediction:  0-non 1-charg 2-wave 3-comb
   ISYM   =      2    0-nonsym 1-usesym 2-fastsym
   LCORR  =      T    Harris-Foulkes like correction to forces

   POTIM  = 0.5000    time-step for ionic-motion
   TEIN   =    0.0    initial temperature
   TEBEG  =    0.0;   TEEND  =   0.0 temperature during run
   SMASS  =  -3.00    Nose mass-parameter (am)
   estimated Nose-frequenzy (Omega)   =  0.10E-29 period in steps =****** mass=  -0.925E-27a.u.
   SCALEE = 1.0000    scale energy and forces
   NPACO  =    256;   APACO  = 16.0  distance and # of slots for P.C.
   PSTRESS=    0.0 pullay stress

  Mass of Ions in am
   POMASS =  50.94 55.85
  Ionic Valenz
   ZVAL   =   5.00  8.00
  Atomic Wigner-Seitz radii
   RWIGS  =  -1.00 -1.00
  virtual crystal weights 
   VCA    =   1.00  1.00
   NELECT =     109.0000    total number of electrons
   NUPDOWN=      -1.0000    fix difference up-down

 DOS related values:
   EMIN   =  10.00;   EMAX   =-10.00  energy-range for DOS
   EFERMI =   0.00
   ISMEAR =     0;   SIGMA  =   0.10  broadening in eV -4-tet -1-fermi 0-gaus

 Electronic relaxation 2 (details)
   IALGO  =     38    algorithm
   LDIAG  =      T    sub-space diagonalisation (order eigenvalues)
   LSUBROT=      F    optimize rotation matrix (better conditioning)
   TURBO    =      0    0=normal 1=particle mesh
   IRESTART =      0    0=no restart 2=restart with 2 vectors
   NREBOOT  =      0    no. of reboots
   NMIN     =      0    reboot dimension
   EREF     =   0.00    reference energy to select bands
   IMIX   =      4    mixing-type and parameters
     AMIX     =   0.40;   BMIX     =  1.00
     AMIX_MAG =   1.60;   BMIX_MAG =  1.00
     AMIN     =   0.10
     WC   =   100.;   INIMIX=   1;  MIXPRE=   1;  MAXMIX= -45

 Intra band minimization:
   WEIMIN = 0.0010     energy-eigenvalue tresh-hold
   EBREAK =  0.37E-07  absolut break condition
   DEPER  =   0.30     relativ break condition  

   TIME   =   0.40     timestep for ELM

  volume/ion in A,a.u.               =      12.95        87.42
  Fermi-wavevector in a.u.,A,eV,Ry     =   1.226714  2.318154 20.474433  1.504828
  Thomas-Fermi vector in A             =   2.361705
 
 Write flags
   LWAVE        =      F    write WAVECAR
   LDOWNSAMPLE  =      F    k-point downsampling of WAVECAR
   LCHARG       =      F    write CHGCAR
   LVTOT        =      F    write LOCPOT, total local potential
   LVHAR        =      F    write LOCPOT, Hartree potential only
   LELF         =      F    write electronic localiz. function (ELF)
   LORBIT       =      0    0 simple, 1 ext, 2 COOP (PROOUT), +10 PAW based schemes


 Dipole corrections
   LMONO  =      F    monopole corrections only (constant potential shift)
   LDIPOL =      F    correct potential (dipole corrections)
   IDIPOL =      0    1-x, 2-y, 3-z, 4-all directions 
   EPSILON=  1.0000000 bulk dielectric constant

 Exchange correlation treatment:
   GGA     =    --    GGA type
   LEXCH   =     8    internal setting for exchange type
   VOSKOWN=      0    Vosko Wilk Nusair interpolation
   LHFCALC =     F    Hartree Fock is set to
   LHFONE  =     F    Hartree Fock one center treatment
   AEXX    =    0.0000 exact exchange contribution

 Linear response parameters
   LEPSILON=     F    determine dielectric tensor
   LRPA    =     F    only Hartree local field effects (RPA)
   LNABLA  =     F    use nabla operator in PAW spheres
   LVEL    =     F    velocity operator in full k-point grid
   LINTERFAST=   F  fast interpolation
   KINTER  =     0    interpolate to denser k-point grid
   CSHIFT  =0.1000    complex shift for real part using Kramers Kronig
   OMEGAMAX=  -1.0    maximum frequency
   DEG_THRESHOLD= 0.2000000E-02 threshold for treating states as degnerate
   RTIME   =   -0.100 relaxation time in fs
  (WPLASMAI=    0.000 imaginary part of plasma frequency in eV, 0.658/RTIME)
   DFIELD  = 0.0000000 0.0000000 0.0000000 field for delta impulse in time
 
 Orbital magnetization related:
   ORBITALMAG=     F  switch on orbital magnetization
   LCHIMAG   =     F  perturbation theory with respect to B field
   DQ        =  0.001000  dq finite difference perturbation B field
   LLRAUG    =     F  two centre corrections for induced B field



--------------------------------------------------------------------------------------------------------


 conjugate gradient relaxation of ions
 charge density and potential will be updated during run
 non-spin polarized calculation
 Variant of blocked Davidson
 Davidson routine will perform the subspace rotation
 perform sub-space diagonalisation
    after iterative eigenvector-optimisation
 modified Broyden-mixing scheme, WC =      100.0
 initial mixing is a Kerker type mixing with AMIX =  0.4000 and BMIX =      1.0000
 Hartree-type preconditioning will be used
 using additional bands           13
 reciprocal scheme for non local part
 use partial core corrections
 calculate Harris-corrections to forces 
   (improved forces if not selfconsistent)
 use gradient corrections 
 use of overlap-Matrix (Vanderbilt PP)
 Gauss-broadening in eV      SIGMA  =   0.10


--------------------------------------------------------------------------------------------------------


  energy-cutoff  :      267.88
  volume of cell :      259.07
      direct lattice vectors                 reciprocal lattice vectors
     6.363238000  0.000000000  0.000000000     0.157152695  0.029220504 -0.000001910
    -1.780582000  9.576264000  0.000000000     0.000000000  0.104424857  0.000058825
     0.000497000 -0.002395000  4.251540000     0.000000000  0.000000000  0.235208889

  length of vectors
     6.363238000  9.740395498  4.251540704     0.159846199  0.104424874  0.235208889


 
 k-points in units of 2pi/SCALE and weight: EA                                      
   0.00000000  0.00000000  0.00000000       0.083
   0.07857635  0.01461025 -0.00000096       0.083
   0.00000000  0.05221243  0.00002941       0.083
   0.07857635  0.06682268  0.00002846       0.083
   0.00000000  0.00000000  0.07840296       0.167
   0.07857635  0.01461025  0.07840201       0.167
   0.00000000  0.05221243  0.07843238       0.167
   0.07857635  0.06682268  0.07843142       0.167
 
 k-points in reciprocal lattice and weights: EA                                      
   0.00000000  0.00000000  0.00000000       0.083
   0.50000000 -0.00000000 -0.00000000       0.083
   0.00000000  0.50000000 -0.00000000       0.083
   0.50000000  0.50000000  0.00000000       0.083
   0.00000000  0.00000000  0.33333333       0.167
   0.50000000 -0.00000000  0.33333333       0.167
   0.00000000  0.50000000  0.33333333       0.167
   0.50000000  0.50000000  0.33333333       0.167
 
 position of ions in fractional coordinates (direct lattice) 
   0.32376100  0.76828900  0.48121600
   0.72093100  0.86875600  0.48248000
   0.70520700  0.36235800  0.48248000
   0.91859300  0.66649600  0.48043700
   0.12021400  0.46115800  0.48123700
   0.11499000  0.96586000  0.48388700
   0.92059200  0.16859300  0.48484900
   0.51130300  0.56141600  0.48063300
   0.51136200  0.06591000  0.48452000
   0.21997900  0.61348600  0.98058800
   0.22265600  0.12166100  0.98473200
   0.81086700  0.51475400  0.98065100
   0.02781500  0.81920200  0.98176800
   0.02309600  0.32011900  0.98320700
   0.81083700  0.01771300  0.98446900
   0.61209200  0.22270300  0.98431500
   0.61620700  0.72180700  0.98074300
   0.31335600  0.26150800  0.48336500
   0.41861500  0.42122800  0.98186800
   0.41715900  0.91778600  0.98306500
 
 position of ions in cartesian coordinates  (Angst):
   0.69240590  7.35618578  2.04590907
   3.04080403  8.31828127  2.05128302
   3.84243164  3.46888033  2.05128302
   4.65871388  6.38139100  2.04259712
  -0.05594017  4.41501819  2.04599835
  -0.98784370  9.24817144  2.05726494
   5.55799331  1.61332986  2.06135492
   2.25413433  5.37511671  2.04343042
   3.13680076  0.63001113  2.05995616
   0.30790396  5.87255539  4.16900911
   1.20067515  1.16269942  4.18662749
   4.24366538  4.92707154  4.16927695
  -1.28117493  7.84254329  4.17402592
  -0.42254413  3.06318927  4.18014389
   5.12849864  0.16726656  4.18550933
   3.49883533  2.13030529  4.18485460
   2.63632268  6.90986551  4.16966809
   1.52856260  2.50311199  2.05504563
   1.91420387  4.03143896  4.17445108
   1.02077735  8.78660659  4.17954017
 


--------------------------------------------------------------------------------------------------------


 k-point  1 :   0.0000 0.0000 0.0000  plane waves:    2575
 k-point  2 :   0.5000-0.0000-0.0000  plane waves:    2588
 k-point  3 :   0.0000 0.5000-0.0000  plane waves:    2590
 k-point  4 :   0.5000 0.5000 0.0000  plane waves:    2576
 k-point  5 :   0.0000 0.0000 0.3333  plane waves:    2574
 k-point  6 :   0.5000-0.0000 0.3333  plane waves:    2557
 k-point  7 :   0.0000 0.5000 0.3333  plane waves:    2575
 k-point  8 :   0.5000 0.5000 0.3333  plane waves:    2556

 maximum and minimum number of plane-waves per node :      2590     2556

 maximum number of plane-waves:      2590
 maximum index in each direction: 
   IXMAX=    8   IYMAX=   12   IZMAX=    5
   IXMIN=   -8   IYMIN=  -13   IZMIN=   -6


 serial   3D FFT for wavefunctions
 parallel 3D FFT for charge:
    minimum data exchange during FFTs selected (reduces bandwidth)


 total amount of memory used by VASP MPI-rank0    48221. kBytes
=======================================================================

   base      :      30000. kBytes
   nonl-proj :       6801. kBytes
   fftplans  :       1515. kBytes
   grid      :       3171. kBytes
   one-center:        311. kBytes
   wavefun   :       6423. kBytes
 
     INWAV:  cpu time    0.0001: real time    0.0001
 Broyden mixing: mesh for mixing (old mesh)
   NGX = 17   NGY = 25   NGZ = 11
  (NGX  = 56   NGY  = 80   NGZ  = 36)
  gives a total of   4675 points

 initial charge density was supplied:
 charge density of overlapping atoms calculated
 number of electron     109.0000000 magnetization 
 keeping initial charge density in first step


--------------------------------------------------------------------------------------------------------


 Maximum index for augmentation-charges         1154 (set IRDMAX)


--------------------------------------------------------------------------------------------------------


 First call to EWALD:  gamma=   0.278
 Maximum number of real-space cells 3x 2x 4
 Maximum number of reciprocal cells 3x 4x 2

    FEWALD:  cpu time    0.0033: real time    0.0034


--------------------------------------- Iteration      1(   1)  ---------------------------------------


    POTLOK:  cpu time    0.0407: real time    0.0408
    SETDIJ:  cpu time    0.0178: real time    0.0178
     EDDAV:  cpu time    1.9570: real time    2.0961
       DOS:  cpu time    0.0020: real time    0.0020
    --------------------------------------------
      LOOP:  cpu time    2.0175: real time    2.1567

 eigenvalue-minimisations  :  1088
 total energy-change (2. order) : 0.6223335E+03  (-0.2254168E+04)
 number of electron     109.0000000 magnetization 
 augmentation part      109.0000000 magnetization 

 Free energy of the ion-electron system (eV)
  ---------------------------------------------------
  alpha Z        PSCENC =       552.45265842
  Ewald energy   TEWEN  =     -5295.24750529
  -Hartree energ DENC   =      -815.30008189
  -exchange      EXHF   =         0.00000000
  -V(xc)+E(xc)   XCENC  =      -770.81217986
  PAW double counting   =      5171.05454107    -4356.08836938
  entropy T*S    EENTRO =        -0.06496235
  eigenvalues    EBANDS =      1448.85517895
  atomic energy  EATOM  =      4687.48422623
  Solvation  Ediel_sol  =         0.00000000
  ---------------------------------------------------
  free energy    TOTEN  =       622.33350591 eV

  energy without entropy =      622.39846826  energy(sigma->0) =      622.36598708


--------------------------------------------------------------------------------------------------------




--------------------------------------- Iteration      1(   2)  ---------------------------------------


     EDDAV:  cpu time    1.5934: real time    1.5966
       DOS:  cpu time    0.0012: real time    0.0012
    --------------------------------------------
      LOOP:  cpu time    1.5946: real time    1.5978

 eigenvalue-minimisations  :  1088
 total energy-change (2. order) :-0.7014501E+03  (-0.6784689E+03)
 number of electron     109.0000000 magnetization 
 augmentation part      109.0000000 magnetization 

 Free energy of the ion-electron system (eV)
  ---------------------------------------------------
  alpha Z        PSCENC =       552.45265842
  Ewald energy   TEWEN  =     -5295.24750529
  -Hartree energ DENC   =      -815.30008189
  -exchange      EXHF   =         0.00000000
  -V(xc)+E(xc)   XCENC  =      -770.81217986
  PAW double counting   =      5171.05454107    -4356.08836938
  entropy T*S    EENTRO =        -0.08613678
  eigenvalues    EBANDS =       747.42627309
  atomic energy  EATOM  =      4687.48422623
  Solvation  Ediel_sol  =         0.00000000
  ---------------------------------------------------
  free energy    TOTEN  =       -79.11657439 eV

  energy without entropy =      -79.03043761  energy(sigma->0) =      -79.07350600


--------------------------------------------------------------------------------------------------------




--------------------------------------- Iteration      1(   3)  ---------------------------------------


     EDDAV:  cpu time    2.0301: real time    2.0463
       DOS:  cpu time    0.0011: real time    0.0011
    --------------------------------------------
      LOOP:  cpu time    2.0312: real time    2.0474

 eigenvalue-minimisations  :  1824
 total energy-change (2. order) :-0.1172171E+03  (-0.1105272E+03)
 number of electron     109.0000000 magnetization 
 augmentation part      109.0000000 magnetization 

 Free energy of the ion-electron system (eV)
  ---------------------------------------------------
  alpha Z        PSCENC =       552.45265842
  Ewald energy   TEWEN  =     -5295.24750529
  -Hartree energ DENC   =      -815.30008189
  -exchange      EXHF   =         0.00000000
  -V(xc)+E(xc)   XCENC  =      -770.81217986
  PAW double counting   =      5171.05454107    -4356.08836938
  entropy T*S    EENTRO =        -0.07704706
  eigenvalues    EBANDS =       630.20010994
  atomic energy  EATOM  =      4687.48422623
  Solvation  Ediel_sol  =         0.00000000
  ---------------------------------------------------
  free energy    TOTEN  =      -196.33364781 eV

  energy without entropy =     -196.25660075  energy(sigma->0) =     -196.29512428


--------------------------------------------------------------------------------------------------------




--------------------------------------- Iteration      1(   4)  ---------------------------------------


     EDDAV:  cpu time    2.0451: real time    2.0729
       DOS:  cpu time    0.0014: real time    0.0013
    --------------------------------------------
      LOOP:  cpu time    2.0465: real time    2.0743

 eigenvalue-minimisations  :  1744
 total energy-change (2. order) :-0.1176146E+02  (-0.1113702E+02)
 number of electron     109.0000000 magnetization 
 augmentation part      109.0000000 magnetization 

 Free energy of the ion-electron system (eV)
  ---------------------------------------------------
  alpha Z        PSCENC =       552.45265842
  Ewald energy   TEWEN  =     -5295.24750529
  -Hartree energ DENC   =      -815.30008189
  -exchange      EXHF   =         0.00000000
  -V(xc)+E(xc)   XCENC  =      -770.81217986
  PAW double counting   =      5171.05454107    -4356.08836938
  entropy T*S    EENTRO =        -0.09518291
  eigenvalues    EBANDS =       618.45678961
  atomic energy  EATOM  =      4687.48422623
  Solvation  Ediel_sol  =         0.00000000
  ---------------------------------------------------
  free energy    TOTEN  =      -208.09510399 eV

  energy without entropy =     -207.99992108  energy(sigma->0) =     -208.04751254


--------------------------------------------------------------------------------------------------------




--------------------------------------- Iteration      1(   5)  ---------------------------------------


     EDDAV:  cpu time    1.9858: real time    2.4510
       DOS:  cpu time    0.0014: real time    0.0014
    CHARGE:  cpu time    0.0510: real time    0.0630
    MIXING:  cpu time    0.0015: real time    0.0015
    --------------------------------------------
      LOOP:  cpu time    2.0397: real time    2.5169

 eigenvalue-minimisations  :  1752
 total energy-change (2. order) :-0.5961257E+00  (-0.5849985E+00)
 number of electron     108.9999992 magnetization 
 augmentation part       33.0870392 magnetization 

 Broyden mixing:
  rms(total) = 0.57198E+01    rms(broyden)= 0.57185E+01
  rms(prec ) = 0.67836E+01
  weight for this iteration     100.00

 Free energy of the ion-electron system (eV)
  ---------------------------------------------------
  alpha Z        PSCENC =       552.45265842
  Ewald energy   TEWEN  =     -5295.24750529
  -Hartree energ DENC   =      -815.30008189
  -exchange      EXHF   =         0.00000000
  -V(xc)+E(xc)   XCENC  =      -770.81217986
  PAW double counting   =      5171.05454107    -4356.08836938
  entropy T*S    EENTRO =        -0.09823411
  eigenvalues    EBANDS =       617.86371512
  atomic energy  EATOM  =      4687.48422623
  Solvation  Ediel_sol  =         0.00000000
  ---------------------------------------------------
  free energy    TOTEN  =      -208.69122969 eV

  energy without entropy =     -208.59299557  energy(sigma->0) =     -208.64211263


--------------------------------------------------------------------------------------------------------




--------------------------------------- Iteration      1(   6)  ---------------------------------------


    POTLOK:  cpu time    0.0291: real time    0.0651
    SETDIJ:  cpu time    0.0161: real time    0.0161
     EDDAV:  cpu time    2.8419: real time    3.4863
       DOS:  cpu time    0.0013: real time    0.0013
    CHARGE:  cpu time    0.0724: real time    0.0726
    MIXING:  cpu time    0.0017: real time    0.0017
    --------------------------------------------
      LOOP:  cpu time    2.9625: real time    3.6432

 eigenvalue-minimisations  :  1944
 total energy-change (2. order) :-0.2422236E+02  (-0.4916561E+02)
 number of electron     108.9999984 magnetization 
 augmentation part       45.6872901 magnetization 

 Broyden mixing:
  rms(total) = 0.87502E+01    rms(broyden)= 0.87493E+01
  rms(prec ) = 0.11854E+02
  weight for this iteration     100.00

 eigenvalues of (default mixing * dielectric matrix)
  average eigenvalue GAMMA=   0.3206
  0.3206

 Free energy of the ion-electron system (eV)
  ---------------------------------------------------
  alpha Z        PSCENC =       552.45265842
  Ewald energy   TEWEN  =     -5295.24750529
  -Hartree energ DENC   =      -605.78323937
  -exchange      EXHF   =         0.00000000
  -V(xc)+E(xc)   XCENC  =      -773.63530186
  PAW double counting   =      6255.70984339    -5421.65395789
  entropy T*S    EENTRO =        -0.12929109
  eigenvalues    EBANDS =       367.88898098
  atomic energy  EATOM  =      4687.48422623
  Solvation  Ediel_sol  =         0.00000000
  ---------------------------------------------------
  free energy    TOTEN  =      -232.91358647 eV

  energy without entropy =     -232.78429538  energy(sigma->0) =     -232.84894093


--------------------------------------------------------------------------------------------------------




--------------------------------------- Iteration      1(   7)  ---------------------------------------


    POTLOK:  cpu time    0.0508: real time    0.0510
    SETDIJ:  cpu time    0.0371: real time    0.0371
     EDDAV:  cpu time    2.4077: real time    2.4131
       DOS:  cpu time    0.0015: real time    0.0015
    CHARGE:  cpu time    0.0513: real time    0.0514
    MIXING:  cpu time    0.0016: real time    0.0016
    --------------------------------------------
      LOOP:  cpu time    2.5500: real time    2.5557

 eigenvalue-minimisations  :  2040
 total energy-change (2. order) : 0.5051189E+02  (-0.4078607E+02)
 number of electron     109.0000005 magnetization 
 augmentation part       41.7704606 magnetization 

 Broyden mixing:
  rms(total) = 0.24696E+01    rms(broyden)= 0.24663E+01
  rms(prec ) = 0.43715E+01
  weight for this iteration     100.00

 eigenvalues of (default mixing * dielectric matrix)
  average eigenvalue GAMMA=   0.5931
  0.9417  0.2445

 Free energy of the ion-electron system (eV)
  ---------------------------------------------------
  alpha Z        PSCENC =       552.45265842
  Ewald energy   TEWEN  =     -5295.24750529
  -Hartree energ DENC   =      -677.90671189
  -exchange      EXHF   =         0.00000000
  -V(xc)+E(xc)   XCENC  =      -769.96579621
  PAW double counting   =      6649.27346295    -5831.28570226
  entropy T*S    EENTRO =        -0.10000666
  eigenvalues    EBANDS =       502.89367555
  atomic energy  EATOM  =      4687.48422623
  Solvation  Ediel_sol  =         0.00000000
  ---------------------------------------------------
  free energy    TOTEN  =      -182.40169917 eV

  energy without entropy =     -182.30169250  energy(sigma->0) =     -182.35169584


--------------------------------------------------------------------------------------------------------




--------------------------------------- Iteration      1(   8)  ---------------------------------------


    POTLOK:  cpu time    0.0303: real time    0.0304
    SETDIJ:  cpu time    0.0171: real time    0.0171
     EDDAV:  cpu time    2.7200: real time    2.8320
       DOS:  cpu time    0.0014: real time    0.0014
    CHARGE:  cpu time    0.0515: real time    0.0515
    MIXING:  cpu time    0.0016: real time    0.0016
    --------------------------------------------
      LOOP:  cpu time    2.8218: real time    2.9341

 eigenvalue-minimisations  :  2168
 total energy-change (2. order) :-0.1414094E+02  (-0.1991736E+02)
 number of electron     108.9999915 magnetization 
 augmentation part       43.8880181 magnetization 

 Broyden mixing:
  rms(total) = 0.44700E+01    rms(broyden)= 0.44689E+01
  rms(prec ) = 0.81114E+01
  weight for this iteration     100.00

 eigenvalues of (default mixing * dielectric matrix)
  average eigenvalue GAMMA=   0.4705
  0.9865  0.2621  0.1630

 Free energy of the ion-electron system (eV)
  ---------------------------------------------------
  alpha Z        PSCENC =       552.45265842
  Ewald energy   TEWEN  =     -5295.24750529
  -Hartree energ DENC   =      -658.98083250
  -exchange      EXHF   =         0.00000000
  -V(xc)+E(xc)   XCENC  =      -769.71897868
  PAW double counting   =      7021.25291939    -6210.34910779
  entropy T*S    EENTRO =        -0.10231252
  eigenvalues    EBANDS =       476.66629847
  atomic energy  EATOM  =      4687.48422623
  Solvation  Ediel_sol  =         0.00000000
  ---------------------------------------------------
  free energy    TOTEN  =      -196.54263427 eV

  energy without entropy =     -196.44032175  energy(sigma->0) =     -196.49147801


--------------------------------------------------------------------------------------------------------




--------------------------------------- Iteration      1(   9)  ---------------------------------------


    POTLOK:  cpu time    0.0292: real time    0.0293
    SETDIJ:  cpu time    0.0169: real time    0.0169
     EDDAV:  cpu time    2.4256: real time    3.6380
       DOS:  cpu time    0.0016: real time    0.0016
    CHARGE:  cpu time    0.0509: real time    0.1030
    MIXING:  cpu time    0.0020: real time    0.0140
    --------------------------------------------
      LOOP:  cpu time    2.5263: real time    3.8029

 eigenvalue-minimisations  :  2176
 total energy-change (2. order) : 0.1598735E+02  (-0.1356776E+02)
 number of electron     109.0000000 magnetization 
 augmentation part       43.3924748 magnetization 

 Broyden mixing:
  rms(total) = 0.19416E+01    rms(broyden)= 0.19392E+01
  rms(prec ) = 0.31585E+01
  weight for this iteration     100.00

 eigenvalues of (default mixing * dielectric matrix)
  average eigenvalue GAMMA=   0.4060
  0.9361  0.3536  0.1934  0.1410

 Free energy of the ion-electron system (eV)
  ---------------------------------------------------
  alpha Z        PSCENC =       552.45265842
  Ewald energy   TEWEN  =     -5295.24750529
  -Hartree energ DENC   =      -646.81283049
  -exchange      EXHF   =         0.00000000
  -V(xc)+E(xc)   XCENC  =      -770.21160106
  PAW double counting   =      7115.18550579    -6305.38734150
  entropy T*S    EENTRO =        -0.11812990
  eigenvalues    EBANDS =       482.09973533
  atomic energy  EATOM  =      4687.48422623
  Solvation  Ediel_sol  =         0.00000000
  ---------------------------------------------------
  free energy    TOTEN  =      -180.55528247 eV

  energy without entropy =     -180.43715257  energy(sigma->0) =     -180.49621752


--------------------------------------------------------------------------------------------------------




--------------------------------------- Iteration      1(  10)  ---------------------------------------


    POTLOK:  cpu time    0.0296: real time    0.0577
    SETDIJ:  cpu time    0.0155: real time    0.0275
     EDDAV:  cpu time    3.0015: real time    3.6152
       DOS:  cpu time    0.0015: real time    0.0015
    CHARGE:  cpu time    0.0491: real time    0.0497
    MIXING:  cpu time    0.0015: real time    0.0015
    --------------------------------------------
      LOOP:  cpu time    3.0987: real time    3.7532

 eigenvalue-minimisations  :  2152
 total energy-change (2. order) : 0.1398084E+01  (-0.1362965E+01)
 number of electron     108.9999997 magnetization 
 augmentation part       42.8456233 magnetization 

 Broyden mixing:
  rms(total) = 0.11549E+01    rms(broyden)= 0.11545E+01
  rms(prec ) = 0.15378E+01
  weight for this iteration     100.00

 eigenvalues of (default mixing * dielectric matrix)
  average eigenvalue GAMMA=   0.3656
  0.9259  0.2724  0.2724  0.1786  0.1786

 Free energy of the ion-electron system (eV)
  ---------------------------------------------------
  alpha Z        PSCENC =       552.45265842
  Ewald energy   TEWEN  =     -5295.24750529
  -Hartree energ DENC   =      -650.74803044
  -exchange      EXHF   =         0.00000000
  -V(xc)+E(xc)   XCENC  =      -769.97054176
  PAW double counting   =      7139.22654735    -6330.18992043
  entropy T*S    EENTRO =        -0.12162220
  eigenvalues    EBANDS =       487.95698929
  atomic energy  EATOM  =      4687.48422623
  Solvation  Ediel_sol  =         0.00000000
  ---------------------------------------------------
  free energy    TOTEN  =      -179.15719883 eV

  energy without entropy =     -179.03557663  energy(sigma->0) =     -179.09638773


--------------------------------------------------------------------------------------------------------




--------------------------------------- Iteration      1(  11)  ---------------------------------------


    POTLOK:  cpu time    0.0286: real time    0.0287
    SETDIJ:  cpu time    0.0167: real time    0.0167
     EDDAV:  cpu time    2.3042: real time    2.3081
       DOS:  cpu time    0.0015: real time    0.0015
    CHARGE:  cpu time    0.0522: real time    0.0523
    MIXING:  cpu time    0.0019: real time    0.0019
    --------------------------------------------
      LOOP:  cpu time    2.4052: real time    2.4093

 eigenvalue-minimisations  :  1904
 total energy-change (2. order) : 0.1250737E+00  (-0.1429009E+00)
 number of electron     108.9999994 magnetization 
 augmentation part       42.6391695 magnetization 

 Broyden mixing:
  rms(total) = 0.10167E+01    rms(broyden)= 0.10166E+01
  rms(prec ) = 0.13253E+01
  weight for this iteration     100.00

 eigenvalues of (default mixing * dielectric matrix)
  average eigenvalue GAMMA=   0.4991
  1.0885  0.6880  0.6880  0.1854  0.1854  0.1592

 Free energy of the ion-electron system (eV)
  ---------------------------------------------------
  alpha Z        PSCENC =       552.45265842
  Ewald energy   TEWEN  =     -5295.24750529
  -Hartree energ DENC   =      -651.79786407
  -exchange      EXHF   =         0.00000000
  -V(xc)+E(xc)   XCENC  =      -769.84856263
  PAW double counting   =      7162.41016897    -6353.79528887
  entropy T*S    EENTRO =        -0.12219568
  eigenvalues    EBANDS =       489.43223776
  atomic energy  EATOM  =      4687.48422623
  Solvation  Ediel_sol  =         0.00000000
  ---------------------------------------------------
  free energy    TOTEN  =      -179.03212517 eV

  energy without entropy =     -178.90992948  energy(sigma->0) =     -178.97102732


--------------------------------------------------------------------------------------------------------




--------------------------------------- Iteration      1(  12)  ---------------------------------------


    POTLOK:  cpu time    0.0289: real time    0.0290
    SETDIJ:  cpu time    0.0163: real time    0.0163
     EDDAV:  cpu time    2.4506: real time    2.4622
       DOS:  cpu time    0.0015: real time    0.0016
    CHARGE:  cpu time    0.0526: real time    0.0526
    MIXING:  cpu time    0.0054: real time    0.0054
    --------------------------------------------
      LOOP:  cpu time    2.5553: real time    2.5672

 eigenvalue-minimisations  :  2056
 total energy-change (2. order) :-0.2020692E+00  (-0.2771915E+00)
 number of electron     108.9999991 magnetization 
 augmentation part       43.2568183 magnetization 

 Broyden mixing:
  rms(total) = 0.10904E+01    rms(broyden)= 0.10902E+01
  rms(prec ) = 0.15684E+01
  weight for this iteration     100.00

 eigenvalues of (default mixing * dielectric matrix)
  average eigenvalue GAMMA=   0.5577
  1.4672  0.8312  0.8312  0.2754  0.1721  0.1721  0.1545

 Free energy of the ion-electron system (eV)
  ---------------------------------------------------
  alpha Z        PSCENC =       552.45265842
  Ewald energy   TEWEN  =     -5295.24750529
  -Hartree energ DENC   =      -642.33080230
  -exchange      EXHF   =         0.00000000
  -V(xc)+E(xc)   XCENC  =      -769.76845101
  PAW double counting   =      7315.78745534    -6507.72888161
  entropy T*S    EENTRO =        -0.11643185
  eigenvalues    EBANDS =       480.23353769
  atomic energy  EATOM  =      4687.48422623
  Solvation  Ediel_sol  =         0.00000000
  ---------------------------------------------------
  free energy    TOTEN  =      -179.23419440 eV

  energy without entropy =     -179.11776254  energy(sigma->0) =     -179.17597847


--------------------------------------------------------------------------------------------------------




--------------------------------------- Iteration      1(  13)  ---------------------------------------


    POTLOK:  cpu time    0.0294: real time    0.0295
    SETDIJ:  cpu time    0.0372: real time    0.0373
     EDDAV:  cpu time    2.0630: real time    2.0659
       DOS:  cpu time    0.0015: real time    0.0015
    CHARGE:  cpu time    0.0575: real time    0.0576
    MIXING:  cpu time    0.0021: real time    0.0021
    --------------------------------------------
      LOOP:  cpu time    2.1907: real time    2.1939

 eigenvalue-minimisations  :  1752
 total energy-change (2. order) : 0.2886685E+00  (-0.5259153E+00)
 number of electron     108.9999988 magnetization 
 augmentation part       43.7026452 magnetization 

 Broyden mixing:
  rms(total) = 0.88518E+00    rms(broyden)= 0.88506E+00
  rms(prec ) = 0.13181E+01
  weight for this iteration     100.00

 eigenvalues of (default mixing * dielectric matrix)
  average eigenvalue GAMMA=   0.6516
  1.6250  1.6250  0.7901  0.4738  0.1938  0.1775  0.1775  0.1498

 Free energy of the ion-electron system (eV)
  ---------------------------------------------------
  alpha Z        PSCENC =       552.45265842
  Ewald energy   TEWEN  =     -5295.24750529
  -Hartree energ DENC   =      -637.00117863
  -exchange      EXHF   =         0.00000000
  -V(xc)+E(xc)   XCENC  =      -769.50951953
  PAW double counting   =      7467.84629549    -6660.76882085
  entropy T*S    EENTRO =        -0.12592523
  eigenvalues    EBANDS =       475.92424350
  atomic energy  EATOM  =      4687.48422623
  Solvation  Ediel_sol  =         0.00000000
  ---------------------------------------------------
  free energy    TOTEN  =      -178.94552589 eV

  energy without entropy =     -178.81960066  energy(sigma->0) =     -178.88256328


--------------------------------------------------------------------------------------------------------




--------------------------------------- Iteration      1(  14)  ---------------------------------------


    POTLOK:  cpu time    0.0280: real time    0.0281
    SETDIJ:  cpu time    0.0134: real time    0.0374
     EDDAV:  cpu time    2.5173: real time    2.5571
       DOS:  cpu time    0.0016: real time    0.0016
    CHARGE:  cpu time    0.0525: real time    0.0526
    MIXING:  cpu time    0.0021: real time    0.0021
    --------------------------------------------
      LOOP:  cpu time    2.6148: real time    2.6788

 eigenvalue-minimisations  :  2176
 total energy-change (2. order) : 0.2244982E+00  (-0.1211974E+00)
 number of electron     108.9999987 magnetization 
 augmentation part       43.5302914 magnetization 

 Broyden mixing:
  rms(total) = 0.55615E+00    rms(broyden)= 0.55594E+00
  rms(prec ) = 0.80747E+00
  weight for this iteration     100.00

 eigenvalues of (default mixing * dielectric matrix)
  average eigenvalue GAMMA=   0.6317
  1.7591  1.7591  0.7603  0.4642  0.2245  0.2245  0.1725  0.1725  0.1485

 Free energy of the ion-electron system (eV)
  ---------------------------------------------------
  alpha Z        PSCENC =       552.45265842
  Ewald energy   TEWEN  =     -5295.24750529
  -Hartree energ DENC   =      -639.28393847
  -exchange      EXHF   =         0.00000000
  -V(xc)+E(xc)   XCENC  =      -769.39745428
  PAW double counting   =      7504.47820296    -6698.18165364
  entropy T*S    EENTRO =        -0.11843499
  eigenvalues    EBANDS =       479.09287135
  atomic energy  EATOM  =      4687.48422623
  Solvation  Ediel_sol  =         0.00000000
  ---------------------------------------------------
  free energy    TOTEN  =      -178.72102771 eV

  energy without entropy =     -178.60259272  energy(sigma->0) =     -178.66181022


--------------------------------------------------------------------------------------------------------




--------------------------------------- Iteration      1(  15)  ---------------------------------------


    POTLOK:  cpu time    0.0290: real time    0.0291
    SETDIJ:  cpu time    0.0163: real time    0.0163
     EDDAV:  cpu time    2.8255: real time    2.8337
       DOS:  cpu time    0.0015: real time    0.0015
    CHARGE:  cpu time    0.0505: real time    0.0505
    MIXING:  cpu time    0.0021: real time    0.0021
    --------------------------------------------
      LOOP:  cpu time    2.9248: real time    2.9332

 eigenvalue-minimisations  :  2168
 total energy-change (2. order) : 0.1098917E+00  (-0.4962396E-01)
 number of electron     108.9999985 magnetization 
 augmentation part       43.4356439 magnetization 

 Broyden mixing:
  rms(total) = 0.38296E+00    rms(broyden)= 0.38290E+00
  rms(prec ) = 0.50531E+00
  weight for this iteration     100.00

 eigenvalues of (default mixing * dielectric matrix)
  average eigenvalue GAMMA=   0.6369
  1.8448  1.8448  0.6916  0.5628  0.5628  0.2149  0.1747  0.1747  0.1536  0.1445

 Free energy of the ion-electron system (eV)
  ---------------------------------------------------
  alpha Z        PSCENC =       552.45265842
  Ewald energy   TEWEN  =     -5295.24750529
  -Hartree energ DENC   =      -640.28172440
  -exchange      EXHF   =         0.00000000
  -V(xc)+E(xc)   XCENC  =      -769.34102057
  PAW double counting   =      7516.51526618    -6710.61666250
  entropy T*S    EENTRO =        -0.11508900
  eigenvalues    EBANDS =       480.53871488
  atomic energy  EATOM  =      4687.48422623
  Solvation  Ediel_sol  =         0.00000000
  ---------------------------------------------------
  free energy    TOTEN  =      -178.61113605 eV

  energy without entropy =     -178.49604706  energy(sigma->0) =     -178.55359156


--------------------------------------------------------------------------------------------------------




--------------------------------------- Iteration      1(  16)  ---------------------------------------


    POTLOK:  cpu time    0.0288: real time    0.0290
    SETDIJ:  cpu time    0.0170: real time    0.0171
     EDDAV:  cpu time    2.3444: real time    2.5847
       DOS:  cpu time    0.0016: real time    0.0016
    CHARGE:  cpu time    0.0509: real time    0.0509
    MIXING:  cpu time    0.0024: real time    0.0024
    --------------------------------------------
      LOOP:  cpu time    2.4453: real time    2.6858

 eigenvalue-minimisations  :  1880
 total energy-change (2. order) : 0.1509950E-01  (-0.1082430E-01)
 number of electron     108.9999984 magnetization 
 augmentation part       43.3572280 magnetization 

 Broyden mixing:
  rms(total) = 0.28538E+00    rms(broyden)= 0.28536E+00
  rms(prec ) = 0.39113E+00
  weight for this iteration     100.00

 eigenvalues of (default mixing * dielectric matrix)
  average eigenvalue GAMMA=   0.6302
  2.1105  1.6534  0.6751  0.6751  0.6580  0.2923  0.1477  0.1776  0.1776  0.1823
  0.1823

 Free energy of the ion-electron system (eV)
  ---------------------------------------------------
  alpha Z        PSCENC =       552.45265842
  Ewald energy   TEWEN  =     -5295.24750529
  -Hartree energ DENC   =      -640.86960379
  -exchange      EXHF   =         0.00000000
  -V(xc)+E(xc)   XCENC  =      -769.30570953
  PAW double counting   =      7526.90071600    -6721.56218647
  entropy T*S    EENTRO =        -0.11354880
  eigenvalues    EBANDS =       481.66491666
  atomic energy  EATOM  =      4687.48422623
  Solvation  Ediel_sol  =         0.00000000
  ---------------------------------------------------
  free energy    TOTEN  =      -178.59603656 eV

  energy without entropy =     -178.48248776  energy(sigma->0) =     -178.53926216


--------------------------------------------------------------------------------------------------------




--------------------------------------- Iteration      1(  17)  ---------------------------------------


    POTLOK:  cpu time    0.0303: real time    0.0306
    SETDIJ:  cpu time    0.0169: real time    0.0170
     EDDAV:  cpu time    2.3164: real time    2.5142
       DOS:  cpu time    0.0015: real time    0.0015
    CHARGE:  cpu time    0.0519: real time    0.0640
    MIXING:  cpu time    0.0027: real time    0.0147
    --------------------------------------------
      LOOP:  cpu time    2.4197: real time    2.6420

 eigenvalue-minimisations  :  1968
 total energy-change (2. order) : 0.1553346E-01  (-0.9544697E-02)
 number of electron     108.9999985 magnetization 
 augmentation part       43.3186871 magnetization 

 Broyden mixing:
  rms(total) = 0.22267E+00    rms(broyden)= 0.22266E+00
  rms(prec ) = 0.31503E+00
  weight for this iteration     100.00

 eigenvalues of (default mixing * dielectric matrix)
  average eigenvalue GAMMA=   0.6835
  2.4473  1.1982  1.1982  0.9928  0.8211  0.5056  0.1753  0.1753  0.2000  0.1883
  0.1541  0.1454

 Free energy of the ion-electron system (eV)
  ---------------------------------------------------
  alpha Z        PSCENC =       552.45265842
  Ewald energy   TEWEN  =     -5295.24750529
  -Hartree energ DENC   =      -641.11338753
  -exchange      EXHF   =         0.00000000
  -V(xc)+E(xc)   XCENC  =      -769.27717047
  PAW double counting   =      7536.04418433    -6731.14208002
  entropy T*S    EENTRO =        -0.11431882
  eigenvalues    EBANDS =       482.33289007
  atomic energy  EATOM  =      4687.48422623
  Solvation  Ediel_sol  =         0.00000000
  ---------------------------------------------------
  free energy    TOTEN  =      -178.58050310 eV

  energy without entropy =     -178.46618428  energy(sigma->0) =     -178.52334369


--------------------------------------------------------------------------------------------------------




--------------------------------------- Iteration      1(  18)  ---------------------------------------


    POTLOK:  cpu time    0.0297: real time    0.0418
    SETDIJ:  cpu time    0.0168: real time    0.0288
     EDDAV:  cpu time    2.2855: real time    2.4684
       DOS:  cpu time    0.0016: real time    0.0016
    CHARGE:  cpu time    0.0529: real time    0.0529
    MIXING:  cpu time    0.0031: real time    0.0031
    --------------------------------------------
      LOOP:  cpu time    2.3895: real time    2.5966

 eigenvalue-minimisations  :  1984
 total energy-change (2. order) : 0.1327783E-02  (-0.7466424E-02)
 number of electron     108.9999984 magnetization 
 augmentation part       43.2733695 magnetization 

 Broyden mixing:
  rms(total) = 0.20749E+00    rms(broyden)= 0.20747E+00
  rms(prec ) = 0.29801E+00
  weight for this iteration     100.00

 eigenvalues of (default mixing * dielectric matrix)
  average eigenvalue GAMMA=   0.6944
  2.6381  1.5161  1.5161  0.8283  0.8283  0.5175  0.1988  0.1988  0.1750  0.1750
  0.1621  0.1470  0.1263

 Free energy of the ion-electron system (eV)
  ---------------------------------------------------
  alpha Z        PSCENC =       552.45265842
  Ewald energy   TEWEN  =     -5295.24750529
  -Hartree energ DENC   =      -641.39009121
  -exchange      EXHF   =         0.00000000
  -V(xc)+E(xc)   XCENC  =      -769.26059180
  PAW double counting   =      7536.97823528    -6732.44294579
  entropy T*S    EENTRO =        -0.11304238
  eigenvalues    EBANDS =       482.95988122
  atomic energy  EATOM  =      4687.48422623
  Solvation  Ediel_sol  =         0.00000000
  ---------------------------------------------------
  free energy    TOTEN  =      -178.57917531 eV

  energy without entropy =     -178.46613293  energy(sigma->0) =     -178.52265412


--------------------------------------------------------------------------------------------------------




--------------------------------------- Iteration      1(  19)  ---------------------------------------


    POTLOK:  cpu time    0.0344: real time    0.0346
    SETDIJ:  cpu time    0.0172: real time    0.0172
     EDDAV:  cpu time    2.3916: real time    3.3464
       DOS:  cpu time    0.0015: real time    0.0015
    CHARGE:  cpu time    0.0484: real time    0.0605
    MIXING:  cpu time    0.0027: real time    0.0027
    --------------------------------------------
      LOOP:  cpu time    2.4958: real time    3.4627

 eigenvalue-minimisations  :  2000
 total energy-change (2. order) : 0.1931095E-01  (-0.5363878E-02)
 number of electron     108.9999985 magnetization 
 augmentation part       43.2273884 magnetization 

 Broyden mixing:
  rms(total) = 0.10346E+00    rms(broyden)= 0.10343E+00
  rms(prec ) = 0.14655E+00
  weight for this iteration     100.00

 eigenvalues of (default mixing * dielectric matrix)
  average eigenvalue GAMMA=   0.6859
  2.6789  1.5892  1.5892  0.8093  0.8093  0.4719  0.4719  0.2104  0.1757  0.1757
  0.1880  0.1548  0.1457  0.1333

 Free energy of the ion-electron system (eV)
  ---------------------------------------------------
  alpha Z        PSCENC =       552.45265842
  Ewald energy   TEWEN  =     -5295.24750529
  -Hartree energ DENC   =      -641.77574187
  -exchange      EXHF   =         0.00000000
  -V(xc)+E(xc)   XCENC  =      -769.24538980
  PAW double counting   =      7536.10849143    -6731.85210069
  entropy T*S    EENTRO =        -0.11318532
  eigenvalues    EBANDS =       483.62868252
  atomic energy  EATOM  =      4687.48422623
  Solvation  Ediel_sol  =         0.00000000
  ---------------------------------------------------
  free energy    TOTEN  =      -178.55986436 eV

  energy without entropy =     -178.44667904  energy(sigma->0) =     -178.50327170


--------------------------------------------------------------------------------------------------------




--------------------------------------- Iteration      1(  20)  ---------------------------------------


    POTLOK:  cpu time    0.0291: real time    0.0292
    SETDIJ:  cpu time    0.0163: real time    0.0164
     EDDAV:  cpu time    2.2300: real time    2.3927
       DOS:  cpu time    0.0014: real time    0.0014
    CHARGE:  cpu time    0.0478: real time    0.0478
    MIXING:  cpu time    0.0024: real time    0.0024
    --------------------------------------------
      LOOP:  cpu time    2.3271: real time    2.4899

 eigenvalue-minimisations  :  1704
 total energy-change (2. order) : 0.1826925E-02  (-0.9471534E-03)
 number of electron     108.9999985 magnetization 
 augmentation part       43.1961129 magnetization 

 Broyden mixing:
  rms(total) = 0.78598E-01    rms(broyden)= 0.78594E-01
  rms(prec ) = 0.11154E+00
  weight for this iteration     100.00

 eigenvalues of (default mixing * dielectric matrix)
  average eigenvalue GAMMA=   0.7072
  2.7043  1.7552  1.7552  0.9367  0.7661  0.7661  0.5412  0.2142  0.1755  0.1755
  0.1893  0.1893  0.1614  0.1466  0.1307

 Free energy of the ion-electron system (eV)
  ---------------------------------------------------
  alpha Z        PSCENC =       552.45265842
  Ewald energy   TEWEN  =     -5295.24750529
  -Hartree energ DENC   =      -641.98322827
  -exchange      EXHF   =         0.00000000
  -V(xc)+E(xc)   XCENC  =      -769.24148872
  PAW double counting   =      7534.72517131    -6730.56569907
  entropy T*S    EENTRO =        -0.11295041
  eigenvalues    EBANDS =       483.93077837
  atomic energy  EATOM  =      4687.48422623
  Solvation  Ediel_sol  =         0.00000000
  ---------------------------------------------------
  free energy    TOTEN  =      -178.55803744 eV

  energy without entropy =     -178.44508703  energy(sigma->0) =     -178.50156223


--------------------------------------------------------------------------------------------------------




--------------------------------------- Iteration      1(  21)  ---------------------------------------


    POTLOK:  cpu time    0.0281: real time    0.0282
    SETDIJ:  cpu time    0.0171: real time    0.0171
     EDDAV:  cpu time    2.3882: real time    2.6435
       DOS:  cpu time    0.0015: real time    0.0015
    CHARGE:  cpu time    0.0633: real time    0.0634
    MIXING:  cpu time    0.0029: real time    0.0029
    --------------------------------------------
      LOOP:  cpu time    2.5011: real time    2.7566

 eigenvalue-minimisations  :  1960
 total energy-change (2. order) : 0.2926759E-02  (-0.8333412E-03)
 number of electron     108.9999985 magnetization 
 augmentation part       43.1542024 magnetization 

 Broyden mixing:
  rms(total) = 0.37074E-01    rms(broyden)= 0.37065E-01
  rms(prec ) = 0.52878E-01
  weight for this iteration     100.00

 eigenvalues of (default mixing * dielectric matrix)
  average eigenvalue GAMMA=   0.7826
  2.4921  2.0775  2.0775  1.4181  0.8644  0.8400  0.8400  0.5309  0.1755  0.1755
  0.2051  0.2051  0.1841  0.1578  0.1465  0.1316

 Free energy of the ion-electron system (eV)
  ---------------------------------------------------
  alpha Z        PSCENC =       552.45265842
  Ewald energy   TEWEN  =     -5295.24750529
  -Hartree energ DENC   =      -642.39280681
  -exchange      EXHF   =         0.00000000
  -V(xc)+E(xc)   XCENC  =      -769.23941564
  PAW double counting   =      7529.53446162    -6725.56754778
  entropy T*S    EENTRO =        -0.11254535
  eigenvalues    EBANDS =       484.53336392
  atomic energy  EATOM  =      4687.48422623
  Solvation  Ediel_sol  =         0.00000000
  ---------------------------------------------------
  free energy    TOTEN  =      -178.55511068 eV

  energy without entropy =     -178.44256533  energy(sigma->0) =     -178.49883800


--------------------------------------------------------------------------------------------------------




--------------------------------------- Iteration      1(  22)  ---------------------------------------


    POTLOK:  cpu time    0.0650: real time    0.0651
    SETDIJ:  cpu time    0.0288: real time    0.0288
     EDDAV:  cpu time    2.6841: real time    3.7724
       DOS:  cpu time    0.0015: real time    0.0015
    CHARGE:  cpu time    0.0516: real time    0.0636
    MIXING:  cpu time    0.0033: real time    0.0033
    --------------------------------------------
      LOOP:  cpu time    2.8342: real time    3.9348

 eigenvalue-minimisations  :  2056
 total energy-change (2. order) : 0.2711247E-03  (-0.6315140E-03)
 number of electron     108.9999985 magnetization 
 augmentation part       43.1214409 magnetization 

 Broyden mixing:
  rms(total) = 0.20265E-01    rms(broyden)= 0.20257E-01
  rms(prec ) = 0.32207E-01
  weight for this iteration     100.00

 eigenvalues of (default mixing * dielectric matrix)
  average eigenvalue GAMMA=   0.7640
  2.3600  2.2056  2.2056  1.4593  1.0059  0.8221  0.8221  0.5308  0.1756  0.1756
  0.2014  0.2014  0.1968  0.1911  0.1577  0.1465  0.1315

 Free energy of the ion-electron system (eV)
  ---------------------------------------------------
  alpha Z        PSCENC =       552.45265842
  Ewald energy   TEWEN  =     -5295.24750529
  -Hartree energ DENC   =      -642.67526209
  -exchange      EXHF   =         0.00000000
  -V(xc)+E(xc)   XCENC  =      -769.23767563
  PAW double counting   =      7526.40786948    -6722.58440382
  entropy T*S    EENTRO =        -0.11243302
  eigenvalues    EBANDS =       484.95768616
  atomic energy  EATOM  =      4687.48422623
  Solvation  Ediel_sol  =         0.00000000
  ---------------------------------------------------
  free energy    TOTEN  =      -178.55483955 eV

  energy without entropy =     -178.44240653  energy(sigma->0) =     -178.49862304


--------------------------------------------------------------------------------------------------------




--------------------------------------- Iteration      1(  23)  ---------------------------------------


    POTLOK:  cpu time    0.0289: real time    0.0335
    SETDIJ:  cpu time    0.0165: real time    0.0165
     EDDAV:  cpu time    1.9843: real time    2.7700
       DOS:  cpu time    0.0015: real time    0.0015
    CHARGE:  cpu time    0.0364: real time    0.0844
    MIXING:  cpu time    0.0029: real time    0.0029
    --------------------------------------------
      LOOP:  cpu time    2.0703: real time    2.9088

 eigenvalue-minimisations  :  1720
 total energy-change (2. order) : 0.3445421E-03  (-0.2804059E-03)
 number of electron     108.9999985 magnetization 
 augmentation part       43.1172414 magnetization 

 Broyden mixing:
  rms(total) = 0.55321E-02    rms(broyden)= 0.55256E-02
  rms(prec ) = 0.72878E-02
  weight for this iteration     100.00

 eigenvalues of (default mixing * dielectric matrix)
  average eigenvalue GAMMA=   0.7885
  3.0072  2.0616  2.0616  1.3572  1.3572  0.7715  0.7715  0.7018  0.5332  0.1755
  0.1755  0.2056  0.2056  0.1889  0.1826  0.1578  0.1465  0.1315

 Free energy of the ion-electron system (eV)
  ---------------------------------------------------
  alpha Z        PSCENC =       552.45265842
  Ewald energy   TEWEN  =     -5295.24750529
  -Hartree energ DENC   =      -642.68627877
  -exchange      EXHF   =         0.00000000
  -V(xc)+E(xc)   XCENC  =      -769.23920370
  PAW double counting   =      7525.89491685    -6722.09069448
  entropy T*S    EENTRO =        -0.11232292
  eigenvalues    EBANDS =       484.98970865
  atomic energy  EATOM  =      4687.48422623
  Solvation  Ediel_sol  =         0.00000000
  ---------------------------------------------------
  free energy    TOTEN  =      -178.55449501 eV

  energy without entropy =     -178.44217209  energy(sigma->0) =     -178.49833355


--------------------------------------------------------------------------------------------------------




--------------------------------------- Iteration      1(  24)  ---------------------------------------


    POTLOK:  cpu time    0.0277: real time    0.0278
    SETDIJ:  cpu time    0.0165: real time    0.0165
     EDDAV:  cpu time    2.0496: real time    2.1331
       DOS:  cpu time    0.0013: real time    0.0013
    CHARGE:  cpu time    0.0476: real time    0.0517
    MIXING:  cpu time    0.0030: real time    0.0030
    --------------------------------------------
      LOOP:  cpu time    2.1457: real time    2.2334

 eigenvalue-minimisations  :  1744
 total energy-change (2. order) :-0.1968976E-04  (-0.3270524E-04)
 number of electron     108.9999985 magnetization 
 augmentation part       43.1142411 magnetization 

 Broyden mixing:
  rms(total) = 0.47008E-02    rms(broyden)= 0.46995E-02
  rms(prec ) = 0.67486E-02
  weight for this iteration     100.00

 eigenvalues of (default mixing * dielectric matrix)
  average eigenvalue GAMMA=   0.7777
  3.1390  2.0197  2.0197  1.4355  1.4355  0.7676  0.7676  0.7070  0.5336  0.3794
  0.1755  0.1755  0.1316  0.1465  0.1578  0.2061  0.2061  0.1824  0.1895

 Free energy of the ion-electron system (eV)
  ---------------------------------------------------
  alpha Z        PSCENC =       552.45265842
  Ewald energy   TEWEN  =     -5295.24750529
  -Hartree energ DENC   =      -642.69152791
  -exchange      EXHF   =         0.00000000
  -V(xc)+E(xc)   XCENC  =      -769.23744891
  PAW double counting   =      7526.46259589    -6722.69556070
  entropy T*S    EENTRO =        -0.11237857
  eigenvalues    EBANDS =       485.03042615
  atomic energy  EATOM  =      4687.48422623
  Solvation  Ediel_sol  =         0.00000000
  ---------------------------------------------------
  free energy    TOTEN  =      -178.55451470 eV

  energy without entropy =     -178.44213613  energy(sigma->0) =     -178.49832541


--------------------------------------------------------------------------------------------------------




--------------------------------------- Iteration      1(  25)  ---------------------------------------


    POTLOK:  cpu time    0.0285: real time    0.0286
    SETDIJ:  cpu time    0.0173: real time    0.0173
     EDDAV:  cpu time    2.0435: real time    2.0502
       DOS:  cpu time    0.0015: real time    0.0015
    CHARGE:  cpu time    0.0512: real time    0.0513
    MIXING:  cpu time    0.0031: real time    0.0032
    --------------------------------------------
      LOOP:  cpu time    2.1451: real time    2.1520

 eigenvalue-minimisations  :  1760
 total energy-change (2. order) :-0.3693140E-06  (-0.1874599E-04)
 number of electron     108.9999985 magnetization 
 augmentation part       43.1115077 magnetization 

 Broyden mixing:
  rms(total) = 0.52193E-02    rms(broyden)= 0.52185E-02
  rms(prec ) = 0.64421E-02
  weight for this iteration     100.00

 eigenvalues of (default mixing * dielectric matrix)
  average eigenvalue GAMMA=   0.8038
  2.4735  2.4735  2.4425  1.4843  1.4843  0.8630  0.8630  0.8468  0.8468  0.5318
  0.1755  0.1755  0.1315  0.1465  0.1578  0.2058  0.2058  0.2002  0.1813  0.1861

 Free energy of the ion-electron system (eV)
  ---------------------------------------------------
  alpha Z        PSCENC =       552.45265842
  Ewald energy   TEWEN  =     -5295.24750529
  -Hartree energ DENC   =      -642.71265846
  -exchange      EXHF   =         0.00000000
  -V(xc)+E(xc)   XCENC  =      -769.23713099
  PAW double counting   =      7526.36085081    -6722.60971036
  entropy T*S    EENTRO =        -0.11226593
  eigenvalues    EBANDS =       485.06702049
  atomic energy  EATOM  =      4687.48422623
  Solvation  Ediel_sol  =         0.00000000
  ---------------------------------------------------
  free energy    TOTEN  =      -178.55451507 eV

  energy without entropy =     -178.44224914  energy(sigma->0) =     -178.49838210


--------------------------------------------------------------------------------------------------------




--------------------------------------- Iteration      1(  26)  ---------------------------------------


    POTLOK:  cpu time    0.0292: real time    0.0293
    SETDIJ:  cpu time    0.0165: real time    0.0165
     EDDAV:  cpu time    1.7808: real time    1.7996
       DOS:  cpu time    0.0013: real time    0.0013
    CHARGE:  cpu time    0.0552: real time    0.0553
    MIXING:  cpu time    0.0033: real time    0.0033
    --------------------------------------------
      LOOP:  cpu time    1.8863: real time    1.9053

 eigenvalue-minimisations  :  1448
 total energy-change (2. order) : 0.1440815E-04  (-0.7192465E-05)
 number of electron     108.9999985 magnetization 
 augmentation part       43.1150088 magnetization 

 Broyden mixing:
  rms(total) = 0.14003E-02    rms(broyden)= 0.13993E-02
  rms(prec ) = 0.19484E-02
  weight for this iteration     100.00

 eigenvalues of (default mixing * dielectric matrix)
  average eigenvalue GAMMA=   0.7885
  2.5275  2.5275  2.2158  1.5598  1.5598  0.9208  0.9208  0.8113  0.8113  0.5315
  0.4057  0.1755  0.1755  0.1315  0.1465  0.1578  0.2058  0.2058  0.2017  0.1805
  0.1862

 Free energy of the ion-electron system (eV)
  ---------------------------------------------------
  alpha Z        PSCENC =       552.45265842
  Ewald energy   TEWEN  =     -5295.24750529
  -Hartree energ DENC   =      -642.67451400
  -exchange      EXHF   =         0.00000000
  -V(xc)+E(xc)   XCENC  =      -769.23783755
  PAW double counting   =      7526.81091192    -6723.03377021
  entropy T*S    EENTRO =        -0.11233823
  eigenvalues    EBANDS =       485.00366804
  atomic energy  EATOM  =      4687.48422623
  Solvation  Ediel_sol  =         0.00000000
  ---------------------------------------------------
  free energy    TOTEN  =      -178.55450066 eV

  energy without entropy =     -178.44216244  energy(sigma->0) =     -178.49833155


--------------------------------------------------------------------------------------------------------




--------------------------------------- Iteration      1(  27)  ---------------------------------------


    POTLOK:  cpu time    0.0610: real time    0.0612
    SETDIJ:  cpu time    0.0277: real time    0.0277
     EDDAV:  cpu time    1.3824: real time    1.3841
       DOS:  cpu time    0.0013: real time    0.0013
    --------------------------------------------
      LOOP:  cpu time    1.4723: real time    1.4743

 eigenvalue-minimisations  :   728
 total energy-change (2. order) : 0.1107984E-05  (-0.8938837E-06)
 number of electron     108.9999985 magnetization 
 augmentation part       43.1150088 magnetization 

 Free energy of the ion-electron system (eV)
  ---------------------------------------------------
  alpha Z        PSCENC =       552.45265842
  Ewald energy   TEWEN  =     -5295.24750529
  -Hartree energ DENC   =      -642.67872560
  -exchange      EXHF   =         0.00000000
  -V(xc)+E(xc)   XCENC  =      -769.23780690
  PAW double counting   =      7526.78875358    -6723.01427586
  entropy T*S    EENTRO =        -0.11231363
  eigenvalues    EBANDS =       485.01048950
  atomic energy  EATOM  =      4687.48422623
  Solvation  Ediel_sol  =         0.00000000
  ---------------------------------------------------
  free energy    TOTEN  =      -178.55449955 eV

  energy without entropy =     -178.44218592  energy(sigma->0) =     -178.49834274


--------------------------------------------------------------------------------------------------------




 average (electrostatic) potential at core
  the test charge radii are     1.2064  1.0103
  (the norm of the test charge is              1.0000)
       1 -39.2634       2 -38.9777       3 -39.1398       4 -39.0972       5 -39.1777
       6 -39.0399       7 -39.1676       8 -39.2431       9 -39.4145      10 -39.2226
      11 -39.3785      12 -39.1733      13 -39.1330      14 -39.1282      15 -39.1756
      16 -39.1745      17 -39.2309      18 -43.0322      19 -43.0151      20 -43.0122
 
 
 
 E-fermi :   6.2754     XC(G=0): -12.6485     alpha+bet :-15.2488


 k-point     1 :       0.0000    0.0000    0.0000
  band No.  band energies     occupation 
[...]
     18       4.0384      2.00000
     19       4.1111      2.00000
     20       4.3250      2.00000
     21       4.3876      2.00000
     22       4.6062      2.00000
     23       4.6290      2.00000
     24       4.6780      2.00000
     25       4.7050      2.00000
     26       4.8373      2.00000
     27       4.8696      2.00000
     28       4.9320      2.00000
     29       4.9742      2.00000
     30       5.1071      2.00000
     31       5.1955      2.00000
     32       5.2602      2.00000
     33       5.3357      2.00000
     34       5.3570      2.00000
     35       5.3938      2.00000
     36       5.4276      2.00000
     37       5.4470      2.00000
     38       5.4900      2.00000
     39       5.5344      2.00000
     40       5.6686      2.00000
     41       5.7766      2.00000
     42       5.8104      2.00000
     43       5.8872      2.00000
     44       6.0059      2.00000
     45       6.0314      2.00000
     46       6.0839      2.00000
     47       6.1207      2.00000
     48       6.1456      2.00000
     49       6.1586      2.00000
     50       6.1844      2.00000
     51       6.2224      1.99999
     52       6.2563      1.99995
     53       6.2854      1.99974
     54       6.3032      1.99932
     55       6.3558      1.99203
     56       6.4514      1.80651
     57       6.5259      1.19522
     58       6.9854      0.00000
     59       7.0064      0.00000
     60       7.1642      0.00000
     61       7.3731      0.00000
     62       7.4061      0.00000
     63       7.4660      0.00000
     64       7.4989      0.00000
     65       7.5465      0.00000
     66       7.6264      0.00000
     67       7.6705      0.00000
     68       7.7819      0.00000

 k-point     7 :       0.0000    0.5000    0.3333
  band No.  band energies     occupation 
      1       0.9898      2.00000
      2       1.1796      2.00000
      3       2.8540      2.00000
      4       3.0377      2.00000
      5       3.1345      2.00000
      6       3.2472      2.00000
      7       3.2495      2.00000
      8       3.2826      2.00000
      9       3.4508      2.00000
     10       3.4681      2.00000
     11       3.4974      2.00000
     12       3.5047      2.00000
     13       3.7384      2.00000
     14       3.7895      2.00000
     15       3.8988      2.00000
     16       3.9431      2.00000
     17       4.0580      2.00000
     18       4.1212      2.00000
     19       4.1597      2.00000
     20       4.1846      2.00000
     21       4.2241      2.00000
     22       4.2806      2.00000
     23       4.6337      2.00000
     24       4.7100      2.00000
     25       4.7883      2.00000
     26       4.8261      2.00000
     27       4.8328      2.00000
     28       4.8810      2.00000
     29       4.9361      2.00000
     30       4.9758      2.00000
     31       5.0135      2.00000
     32       5.1958      2.00000
     33       5.2359      2.00000
     34       5.3123      2.00000
     35       5.4183      2.00000
     36       5.4497      2.00000
     37       5.5633      2.00000
     38       5.6167      2.00000
     39       5.6417      2.00000
     40       5.7252      2.00000
     41       5.7735      2.00000
     42       5.8431      2.00000
     43       5.8782      2.00000
     44       5.8987      2.00000
     45       5.9660      2.00000
     46       5.9968      2.00000
     47       6.0163      2.00000
     48       6.0504      2.00000
     49       6.0801      2.00000
     50       6.1146      2.00000
     51       6.1432      2.00000
     52       6.1904      2.00000
     53       6.2458      1.99997
     54       6.3137      1.99884
     55       6.5177      1.28362
     56       6.6071      0.36721
     57       6.6409      0.16789
     58       6.6688      0.07612
     59       7.0272      0.00000
     60       7.1968      0.00000
     61       7.2980      0.00000
     62       7.4477      0.00000
     63       7.4859      0.00000
     64       7.5974      0.00000
     65       7.7162      0.00000
     66       7.7570      0.00000
     67       7.7643      0.00000
     68       7.8139      0.00000

 k-point     8 :       0.5000    0.5000    0.3333
  band No.  band energies     occupation 
      1       1.5567      2.00000
      2       1.7982      2.00000
      3       2.2063      2.00000
      4       2.2587      2.00000
      5       2.8777      2.00000
      6       2.9825      2.00000
      7       3.2637      2.00000
      8       3.4189      2.00000
      9       3.4764      2.00000
     10       3.5628      2.00000
     11       3.6163      2.00000
     12       3.6327      2.00000
     13       3.7874      2.00000
     14       3.8094      2.00000
     15       3.8382      2.00000
     16       3.8687      2.00000
     17       3.8701      2.00000
     18       3.9382      2.00000
     19       3.9907      2.00000
     20       4.0385      2.00000
     21       4.0765      2.00000
     22       4.1162      2.00000
     23       4.7145      2.00000
     24       4.7600      2.00000
     25       4.8253      2.00000
     26       4.9272      2.00000
     27       4.9832      2.00000
     28       5.0455      2.00000
     29       5.1126      2.00000
     30       5.1482      2.00000
     31       5.2093      2.00000
     32       5.2878      2.00000
     33       5.3388      2.00000
     34       5.3937      2.00000
     35       5.4593      2.00000
     36       5.4827      2.00000
     37       5.5142      2.00000
     38       5.5598      2.00000
     39       5.6037      2.00000
     40       5.6284      2.00000
     41       5.7113      2.00000
     42       5.8359      2.00000
     43       5.8982      2.00000
     44       5.9306      2.00000
     45       5.9933      2.00000
     46       6.0459      2.00000
     47       6.0605      2.00000
     48       6.1254      2.00000
     49       6.1881      2.00000
     50       6.2332      1.99999
     51       6.3148      1.99877
     52       6.3776      1.98097
     53       6.4077      1.94499
     54       6.4891      1.55739
     55       6.5501      0.92385
     56       6.6569      0.10825
     57       6.7178      0.01361
     58       6.7392      0.00562
     59       6.8397      0.00003
     60       6.9844      0.00000
     61       7.0275      0.00000
     62       7.0929      0.00000
     63       7.3076      0.00000
     64       7.4448      0.00000
     65       7.4736      0.00000
     66       7.5197      0.00000
     67       7.6198      0.00000
     68       7.6730      0.00000


--------------------------------------------------------------------------------------------------------


 soft charge-density along one line, spin component           1
         0         1         2         3         4         5         6         7         8         9
 total charge-density along one line
 
 pseudopotential strength for first ion, spin component:           1
 -1.120   0.000   0.011  -0.000  -0.005  -1.644   0.000   0.011
  0.000  -1.148   0.000  -0.013  -0.000   0.000  -1.669   0.000
  0.011   0.000  -1.144   0.000  -0.008   0.011   0.000  -1.665
 -0.000  -0.013   0.000  -1.119   0.000  -0.000  -0.012   0.000
 -0.005  -0.000  -0.008   0.000  -1.116  -0.005  -0.000  -0.008
 -1.644   0.000   0.011  -0.000  -0.005  -2.116   0.000   0.010
  0.000  -1.669   0.000  -0.012  -0.000   0.000  -2.141   0.000
  0.011   0.000  -1.665   0.000  -0.008   0.010   0.000  -2.137
 -0.000  -0.012   0.000  -1.642   0.000  -0.000  -0.012   0.000
 -0.005  -0.000  -0.008   0.000  -1.639  -0.005  -0.000  -0.007
  0.004   0.000   0.006  -0.000  -0.005   0.004   0.000   0.006
 -0.009  -0.000  -0.015   0.000   0.011  -0.008  -0.000  -0.014
  0.001  -0.000   0.002  -0.000   0.008   0.001  -0.000   0.002
 -0.000  -0.010  -0.000   0.001   0.000  -0.000  -0.010  -0.000
 -0.006  -0.000  -0.001  -0.000   0.002  -0.006  -0.000  -0.001
 -0.001   0.000  -0.005   0.000  -0.011  -0.001   0.000  -0.004
  0.000   0.012   0.000  -0.001  -0.000   0.000   0.012   0.000
  0.009   0.000   0.001   0.000  -0.002   0.009   0.000   0.001
 total augmentation occupancy for first ion, spin component:           1
  0.435   0.001  -0.020  -0.001  -0.072  -0.679  -0.001   0.043   0.003   0.172   0.002  -0.000  -0.009  -0.000  -0.001  -0.000
  0.001   0.484   0.000  -0.033   0.001  -0.001  -0.814  -0.001   0.067  -0.001   0.001   0.000   0.001  -0.083   0.000   0.000
 -0.020   0.000   0.499  -0.000   0.060   0.045  -0.001  -0.769  -0.000  -0.113  -0.057  -0.002  -0.035   0.000  -0.009  -0.001
 -0.001  -0.033  -0.000   0.585  -0.000   0.003   0.067  -0.000  -1.007   0.001  -0.000  -0.000   0.000  -0.026   0.001  -0.000
 -0.072   0.001   0.060  -0.000   0.541   0.172  -0.001  -0.107   0.001  -0.920   0.042   0.001   0.016  -0.000  -0.005   0.001
 -0.679  -0.001   0.045   0.003   0.172   1.783   0.001  -0.017  -0.003  -0.185  -0.014   0.000   0.020  -0.000  -0.019   0.000
 -0.001  -0.814  -0.001   0.067  -0.001   0.001   1.907   0.000  -0.078   0.002  -0.002  -0.000  -0.001   0.067  -0.000   0.000
  0.043  -0.001  -0.769  -0.000  -0.107  -0.017   0.000   1.793  -0.000   0.081   0.013   0.004   0.049  -0.001   0.010   0.003
  0.003   0.067  -0.000  -1.007   0.001  -0.003  -0.078  -0.000   2.102  -0.000   0.000   0.000  -0.000   0.027  -0.000   0.000
  0.172  -0.001  -0.113   0.001  -0.920  -0.185   0.002   0.081  -0.000   2.030   0.002  -0.002  -0.004   0.000  -0.011  -0.001
  0.002   0.001  -0.057  -0.000   0.042  -0.014  -0.002   0.013   0.000   0.002   2.056   0.047  -0.000  -0.001   0.000   0.002
 -0.000   0.000  -0.002  -0.000   0.001   0.000  -0.000   0.004   0.000  -0.002   0.047   0.001   0.001  -0.000   0.000   0.000
 -0.009   0.001  -0.035   0.000   0.016   0.020  -0.001   0.049  -0.000  -0.004  -0.000   0.001   0.390   0.000   0.003   0.011
 -0.000  -0.083   0.000  -0.026  -0.000  -0.000   0.067  -0.001   0.027   0.000  -0.001  -0.000   0.000   0.424  -0.000   0.000
 -0.001   0.000  -0.009   0.001  -0.005  -0.019  -0.000   0.010  -0.000  -0.011   0.000   0.000   0.003  -0.000   0.380   0.000
 -0.000   0.000  -0.001  -0.000   0.001   0.000   0.000   0.003   0.000  -0.001   0.002   0.000   0.011   0.000   0.000   0.000
 -0.000  -0.003  -0.000  -0.001   0.000   0.000   0.005   0.000   0.001  -0.000   0.000   0.000   0.000   0.012   0.000   0.000
 -0.000  -0.000  -0.000   0.000   0.000  -0.001   0.000   0.001  -0.000  -0.001  -0.000   0.000   0.000   0.000   0.010   0.000


------------------------ aborting loop because EDIFF is reached ----------------------------------------


    CHARGE:  cpu time    0.0539: real time    0.0540
    FORLOC:  cpu time    0.0095: real time    0.0095
    FORNL :  cpu time    1.1447: real time    1.1461
    STRESS:  cpu time    1.2730: real time    1.2748
    FORCOR:  cpu time    0.0377: real time    0.0377
    FORHAR:  cpu time    0.0136: real time    0.0136
    MIXING:  cpu time    0.0019: real time    0.0019
    OFIELD:  cpu time    0.0001: real time    0.0001

  FORCE on cell =-STRESS in cart. coord.  units (eV):
  Direction    XX          YY          ZZ          XY          YZ          ZX
  --------------------------------------------------------------------------------------
  Alpha Z   567.93534   567.93534   567.93534
  Ewald   -1819.20949 -1791.86527 -1733.48368   -17.52333     1.29666     0.29403
  Hartree   157.26261   201.23843   273.75794   -11.59830     0.37515     0.08502
  E(xc)    -498.93219  -498.17787  -497.45650     0.07300    -0.04568    -0.02084
  Local     385.84936   315.98872   182.36222    28.49984    -1.58646    -0.36994
  n-local   -88.87122   -92.05169   -90.43429    -0.28383    -0.02329    -0.05923
  augment   449.02457   448.82467   448.26581     0.14929     0.03379     0.03955
  Kinetic   846.87908   848.02847   849.00332     0.69818    -0.05060     0.02934
  Fock        0.00000     0.00000     0.00000     0.00000     0.00000     0.00000
  -------------------------------------------------------------------------------------
  Total      -0.06195    -0.07921    -0.04984     0.01485    -0.00044    -0.00208
  in kB      -0.39385    -0.50359    -0.31686     0.09442    -0.00279    -0.01322
  external pressure =       -0.40 kB  Pullay stress =        0.00 kB


 VOLUME and BASIS-vectors are now :
 -----------------------------------------------------------------------------
  energy-cutoff  :      267.88
  volume of cell :      252.01
      direct lattice vectors                 reciprocal lattice vectors
     6.307094588 -0.040978014  0.000114840     0.158748095  0.030241882  0.000004499
    -1.827031910  9.590601990 -0.002977441     0.000678286  0.104397985  0.000092429
     0.000586058 -0.003696964  4.171377522    -0.000003886  0.000073684  0.239729027

  length of vectors
     6.307227707  9.763078459  4.171379201     0.161602999  0.104400230  0.239729038


 FORCES acting on ions
    electron-ion (+dipol)            ewald-force                    non-local-force                 convergence-correction
 -----------------------------------------------------------------------------------------------
   0.125E+02 0.260E+02 -.213E+00   -.127E+02 -.261E+02 0.218E+00   0.192E+00 0.119E+00 -.278E-02   0.157E-01 -.163E-01 -.303E-03
   -.242E+02 0.152E+02 -.473E-02   0.250E+02 -.153E+02 0.120E-01   -.821E+00 0.149E+00 -.743E-02   -.231E-02 -.361E-01 0.798E-04
   -.564E+02 -.203E+02 0.116E-01   0.573E+02 0.200E+02 -.116E-02   -.898E+00 0.278E+00 -.101E-01   -.917E-02 0.307E-01 -.364E-04
   0.592E+00 -.651E+01 -.961E-01   -.499E+00 0.659E+01 0.125E+00   -.804E-01 -.824E-01 -.259E-01   -.110E-01 -.889E-03 -.435E-03
   0.522E+02 -.436E+02 -.169E+00   -.532E+02 0.436E+02 0.202E+00   0.997E+00 0.263E-01 -.312E-01   0.146E-01 0.138E-01 -.281E-03
   0.302E+02 0.289E+02 0.128E+00   -.310E+02 -.291E+02 -.149E+00   0.864E+00 0.189E+00 0.186E-01   -.379E-02 -.201E-01 0.271E-03
   0.300E+02 0.216E+02 0.823E-01   -.303E+02 -.216E+02 -.113E+00   0.275E+00 0.991E-02 0.283E-01   0.158E-01 0.122E-01 0.416E-03
   -.214E+02 -.616E+02 -.395E+00   0.217E+02 0.622E+02 0.402E+00   -.303E+00 -.680E+00 -.469E-02   -.758E-02 0.816E-02 -.365E-03
   -.355E+02 0.141E+02 0.133E+00   0.360E+02 -.139E+02 -.146E+00   -.423E+00 -.178E+00 0.107E-01   -.959E-02 -.199E-01 0.450E-03
   0.353E+02 -.284E+02 -.642E-02   -.358E+02 0.280E+02 0.229E-01   0.391E+00 0.459E+00 -.136E-01   0.178E-01 -.200E-02 -.462E-03
   0.360E+02 0.417E+02 0.358E+00   -.365E+02 -.424E+02 -.373E+00   0.495E+00 0.650E+00 0.122E-01   -.568E-03 0.146E-02 0.577E-03
   -.337E+02 -.364E+02 -.824E-01   0.338E+02 0.363E+02 0.101E+00   -.151E+00 0.783E-01 -.160E-01   -.103E-01 0.102E-01 -.458E-03
   0.316E+02 0.232E+02 -.313E-01   -.320E+02 -.232E+02 0.444E-01   0.417E+00 0.256E-01 -.117E-01   -.129E-02 -.122E-01 -.267E-03
   0.520E+02 0.129E+01 0.439E-02   -.529E+02 -.106E+01 -.211E-01   0.812E+00 -.253E+00 0.159E-01   0.150E-01 0.295E-01 0.181E-03
   -.237E+02 0.645E+01 0.886E-01   0.241E+02 -.640E+01 -.113E+00   -.332E+00 -.165E-01 0.218E-01   0.497E-02 -.320E-01 0.456E-03
   -.545E+02 0.192E+02 0.176E+00   0.556E+02 -.189E+02 -.210E+00   -.110E+01 -.343E+00 0.322E-01   -.924E-02 0.255E-01 0.396E-03
   -.320E+02 0.185E+01 -.326E-01   0.323E+02 -.138E+01 0.525E-01   -.303E+00 -.458E+00 -.171E-01   -.894E-02 -.970E-02 -.454E-03
   0.187E+02 0.314E+02 0.120E+00   -.187E+02 -.317E+02 -.961E-01   0.826E-01 0.208E+00 -.253E-01   -.533E-02 0.497E-01 0.921E-03
   -.121E+02 -.620E+02 -.158E+00   0.122E+02 0.621E+02 0.123E+00   -.750E-01 -.136E+00 0.360E-01   -.127E-01 0.448E-01 -.418E-03
   -.563E+01 0.281E+02 0.693E-01   0.566E+01 -.279E+02 -.796E-01   -.231E-01 -.853E-01 0.899E-02   -.172E-02 -.600E-01 0.500E-03
 -----------------------------------------------------------------------------------------------
   -.662E-02 0.237E-01 -.178E-01   0.888E-14 0.711E-13 0.119E-13   0.163E-01 -.398E-01 0.189E-01   -.959E-02 0.171E-01 0.769E-03
 
 
 POSITION                                       TOTAL-FORCE (eV/Angst)
 -----------------------------------------------------------------------------------
      0.63755      7.35198      2.00631         0.006230      0.002266      0.001652
      2.96019      8.30057      2.01012        -0.000616     -0.003084     -0.000138
      3.78751      3.44455      2.01174         0.000508      0.004672      0.000227
      4.57720      6.35254      2.00401         0.001974      0.002407      0.002420
     -0.08438      4.41625      2.00721         0.000172     -0.001603      0.001413
     -1.03952      9.25607      2.01421         0.003072     -0.001769     -0.001761
      5.49813      1.57757      2.01981        -0.003049     -0.003846     -0.002289
      2.19971      5.36126      2.00484         0.003441     -0.001471      0.001940
      3.10485      0.60975      2.01903        -0.005188      0.004223     -0.002270
      0.26633      5.87136      4.09020         0.000897     -0.005029      0.002336
      1.18213      1.15402      4.10531        -0.003211     -0.003647     -0.002650
      4.17363      4.90133      4.09074         0.007574      0.000168      0.002149
     -1.32011      7.85159      4.09344         0.000182     -0.000699      0.001039
     -0.43919      3.06455      4.09990        -0.006555      0.002597     -0.000675
      5.08165      0.13345      4.10458        -0.003127     -0.001926     -0.002138
      3.45470      2.10717      4.10378        -0.000437      0.005483     -0.002047
      2.57023      6.89336      4.09062        -0.000989      0.004052      0.002162
      1.49825      2.49473      2.01526        -0.002373     -0.002120     -0.000901
      1.87145      4.01948      4.09576         0.001437     -0.001427      0.000419
      0.95475      8.78076      4.09771         0.000057      0.000754     -0.000888
 -----------------------------------------------------------------------------------
    total drift:                                0.000070      0.000963      0.001848


--------------------------------------------------------------------------------------------------------



  FREE ENERGIE OF THE ION-ELECTRON SYSTEM (eV)
  ---------------------------------------------------
  free  energy   TOTEN  =      -178.69880788 eV

  energy  without entropy=     -178.59228875  energy(sigma->0) =     -178.64554832
 
 d Force =-0.1503771E-04[-0.196E-04,-0.105E-04]  d Energy = 0.5216058E-04-0.672E-04
 d Force =-0.3825514E-01[-0.383E-01,-0.382E-01]  d Ewald  = 0.7917208E+00-0.830E+00


--------------------------------------------------------------------------------------------------------


    POTLOK:  cpu time    0.0492: real time    0.0493


--------------------------------------------------------------------------------------------------------




--------------------------------------------------------------------------------------------------------


  
 reached required accuracy - stopping structural energy minimisation
     LOOP+:  cpu time   17.4336: real time   19.3090
    4ORBIT:  cpu time    0.0000: real time    0.0000

 total amount of memory used by VASP MPI-rank0    48221. kBytes
=======================================================================

   base      :      30000. kBytes
   nonl-proj :       6801. kBytes
   fftplans  :       1515. kBytes
   grid      :       3171. kBytes
   one-center:        311. kBytes
   wavefun   :       6423. kBytes
 
  
  
 General timing and accounting informations for this job:
 ========================================================
  
                  Total CPU time used (sec):      364.947
                            User time (sec):      362.163
                          System time (sec):        2.784
                         Elapsed time (sec):      422.185
  
                   Maximum memory used (kb):      181528.
                   Average memory used (kb):           0.
  
                          Minor page faults:       351381
                          Major page faults:            0
                 Voluntary context switches:          361
