<?xml version="1.0" encoding="ISO-8859-1"?>
<modeling>
 <generator>
  <i name="program" type="string">vasp </i>
  <i name="version" type="string">5.4.4.18Apr17-6-g9f103f2a35  </i>
  <i name="subversion" type="string">(build Jul 11 2019 11:52:51) complex            parallel </i>
  <i name="platform" type="string">LinuxIFC </i>
  <i name="date" type="string">2023 11 29 </i>
  <i name="time" type="string">16:42:10 </i>
 </generator>
 <incar>
  <i type="int" name="ISTART">     0</i>
  <i type="string" name="PREC">normal</i>
  <i type="int" name="IBRION">     2</i>
  <i name="EDIFF">      0.00001000</i>
  <i name="EDIFFG">     -0.01000000</i>
  <i type="int" name="NSW">   500</i>
  <i type="int" name="ISIF">     3</i>
  <i name="POTIM">      0.50000000</i>
  <i type="int" name="ISMEAR">     0</i>
  <i name="SIGMA">      0.10000000</i>
  <i name="PSTRESS">      0.00000000</i>
  <i type="logical" name="LWAVE"> F  </i>
  <i type="logical" name="LCHARG"> F  </i>
  <v type="int" name="KPOINT_BSE">    -1     0     0     0</v>
 </incar>
 <structure name="primitive_cell" >
  <crystal>
   <varray name="basis" >
    <v>       6.36323800       0.00000000       0.00000000 </v>
    <v>      -1.78058200       9.57626400       0.00000000 </v>
    <v>       0.00049700      -0.00239500       4.25154000 </v>
   </varray>
   <i name="volume">    259.07204119 </i>
   <varray name="rec_basis" >
    <v>       0.15715269       0.02922050      -0.00000191 </v>
    <v>       0.00000000       0.10442486       0.00005883 </v>
    <v>       0.00000000       0.00000000       0.23520889 </v>
   </varray>
  </crystal>
  <varray name="positions" >
   <v>       0.32376100      -0.23171100       0.48121600 </v>
   <v>      -0.48869700      -0.43858400       0.48063300 </v>
   <v>       0.11499000      -0.03414000       0.48388700 </v>
   <v>      -0.27906900      -0.13124400       0.48248000 </v>
   <v>       0.41715900      -0.08221400      -0.01693500 </v>
   <v>      -0.08140700      -0.33350400       0.48043700 </v>
   <v>       0.21997900      -0.38651400      -0.01941200 </v>
   <v>      -0.38379300      -0.27819300      -0.01925700 </v>
   <v>      -0.48863800       0.06591000       0.48452000 </v>
   <v>       0.02781500      -0.18079800      -0.01823200 </v>
   <v>       0.12021400       0.46115800       0.48123700 </v>
   <v>       0.41861500       0.42122800      -0.01813200 </v>
   <v>      -0.18916300       0.01771300      -0.01553100 </v>
   <v>       0.22265600       0.12166100      -0.01526800 </v>
   <v>      -0.18913300      -0.48524600      -0.01934900 </v>
   <v>       0.31335600       0.26150800       0.48336500 </v>
   <v>       0.02309600       0.32011900      -0.01679300 </v>
   <v>      -0.07940800       0.16859300       0.48484900 </v>
   <v>      -0.38790800       0.22270300      -0.01568500 </v>
   <v>      -0.29479300       0.36235800       0.48248000 </v>
  </varray>
 </structure>
 <varray name="primitive_index" >
  <v type="int" >        1 </v>
  <v type="int" >        8 </v>
  <v type="int" >        6 </v>
  <v type="int" >        2 </v>
  <v type="int" >       20 </v>
  <v type="int" >        4 </v>
  <v type="int" >       10 </v>
  <v type="int" >       17 </v>
  <v type="int" >        9 </v>
  <v type="int" >       13 </v>
  <v type="int" >        5 </v>
  <v type="int" >       19 </v>
  <v type="int" >       15 </v>
  <v type="int" >       11 </v>
  <v type="int" >       12 </v>
  <v type="int" >       18 </v>
  <v type="int" >       14 </v>
  <v type="int" >        7 </v>
  <v type="int" >       16 </v>
  <v type="int" >        3 </v>
 </varray>
 <kpoints>
  <generation param="Gamma">
   <v type="int" name="divisions">       2        2        3 </v>
   <v name="usershift">      0.00000000       0.00000000       0.00000000 </v>
   <v name="genvec1">      0.50000000      -0.00000000       0.00000000 </v>
   <v name="genvec2">      0.00000000       0.50000000      -0.00000000 </v>
   <v name="genvec3">      0.00000000       0.00000000       0.33333333 </v>
   <v name="shift">      0.00000000       0.00000000       0.00000000 </v>
  </generation>
  <varray name="kpointlist" >
   <v>       0.00000000       0.00000000       0.00000000 </v>
   <v>       0.50000000      -0.00000000      -0.00000000 </v>
   <v>       0.00000000       0.50000000      -0.00000000 </v>
   <v>       0.50000000       0.50000000       0.00000000 </v>
   <v>       0.00000000       0.00000000       0.33333333 </v>
   <v>       0.50000000      -0.00000000       0.33333333 </v>
   <v>       0.00000000       0.50000000       0.33333333 </v>
   <v>       0.50000000       0.50000000       0.33333333 </v>
  </varray>
  <varray name="weights" >
   <v>       0.08333333 </v>
   <v>       0.08333333 </v>
   <v>       0.08333333 </v>
   <v>       0.08333333 </v>
   <v>       0.16666667 </v>
   <v>       0.16666667 </v>
   <v>       0.16666667 </v>
   <v>       0.16666667 </v>
  </varray>
 </kpoints>
 <parameters>
  <separator name="general" >
   <i type="string" name="SYSTEM">unknown system</i>
   <i type="logical" name="LCOMPAT"> F  </i>
  </separator>
  <separator name="electronic" >
   <i type="string" name="PREC">normal</i>
   <i name="ENMAX">    267.88200000</i>
   <i name="ENAUG">    511.36800000</i>
   <i name="EDIFF">      0.00001000</i>
   <i type="int" name="IALGO">    38</i>
   <i type="int" name="IWAVPR">    11</i>
   <i type="int" name="NBANDS">    68</i>
   <i name="NELECT">    109.00000000</i>
   <i type="int" name="TURBO">     0</i>
   <i type="int" name="IRESTART">     0</i>
   <i type="int" name="NREBOOT">     0</i>
   <i type="int" name="NMIN">     0</i>
   <i name="EREF">      0.00000000</i>
   <separator name="electronic smearing" >
    <i type="int" name="ISMEAR">     0</i>
    <i name="SIGMA">      0.10000000</i>
    <i name="KSPACING">      0.50000000</i>
    <i type="logical" name="KGAMMA"> T  </i>
   </separator>
   <separator name="electronic projectors" >
    <i type="logical" name="LREAL"> F  </i>
    <v name="ROPT">      0.00000000      0.00000000</v>
    <i type="int" name="LMAXPAW">  -100</i>
    <i type="int" name="LMAXMIX">     2</i>
    <i type="logical" name="NLSPLINE"> F  </i>
   </separator>
   <separator name="electronic startup" >
    <i type="int" name="ISTART">     0</i>
    <i type="int" name="ICHARG">     2</i>
    <i type="int" name="INIWAV">     1</i>
   </separator>
   <separator name="electronic spin" >
    <i type="int" name="ISPIN">     1</i>
    <i type="logical" name="LNONCOLLINEAR"> F  </i>
    <v name="MAGMOM">      1.00000000      1.00000000      1.00000000      1.00000000      1.00000000      1.00000000      1.00000000      1.00000000      1.00000000      1.00000000      1.00000000      1.00000000      1.00000000      1.00000000      1.00000000      1.00000000      1.00000000      1.00000000      1.00000000      1.00000000
</v>
    <i name="NUPDOWN">     -1.00000000</i>
    <i type="logical" name="LSORBIT"> F  </i>
    <v name="SAXIS">      0.00000000      0.00000000      1.00000000</v>
    <i type="logical" name="LSPIRAL"> F  </i>
    <v name="QSPIRAL">      0.00000000      0.00000000      0.00000000</v>
    <i type="logical" name="LZEROZ"> F  </i>
   </separator>
   <separator name="electronic exchange-correlation" >
    <i type="logical" name="LASPH"> F  </i>
    <i type="logical" name="LMETAGGA"> F  </i>
   </separator>
   <separator name="electronic convergence" >
    <i type="int" name="NELM">    60</i>
    <i type="int" name="NELMDL">    -5</i>
    <i type="int" name="NELMIN">     2</i>
    <i name="ENINI">    267.88200000</i>
    <separator name="electronic convergence detail" >
     <i type="logical" name="LDIAG"> T  </i>
     <i type="logical" name="LSUBROT"> F  </i>
     <i name="WEIMIN">      0.00100000</i>
     <i name="EBREAK">      0.00000004</i>
     <i name="DEPER">      0.30000000</i>
     <i type="int" name="NRMM">     4</i>
     <i name="TIME">      0.40000000</i>
    </separator>
   </separator>
   <separator name="electronic mixer" >
    <i name="AMIX">      0.40000000</i>
    <i name="BMIX">      1.00000000</i>
    <i name="AMIN">      0.10000000</i>
    <i name="AMIX_MAG">      1.60000000</i>
    <i name="BMIX_MAG">      1.00000000</i>
    <separator name="electronic mixer details" >
     <i type="int" name="IMIX">     4</i>
     <i type="logical" name="MIXFIRST"> F  </i>
     <i type="int" name="MAXMIX">   -45</i>
     <i name="WC">    100.00000000</i>
     <i type="int" name="INIMIX">     1</i>
     <i type="int" name="MIXPRE">     1</i>
     <i type="int" name="MREMOVE">     5</i>
    </separator>
   </separator>
   <separator name="electronic dipolcorrection" >
    <i type="logical" name="LDIPOL"> F  </i>
    <i type="logical" name="LMONO"> F  </i>
    <i type="int" name="IDIPOL">     0</i>
    <i name="EPSILON">      1.00000000</i>
    <v name="DIPOL">   -100.00000000   -100.00000000   -100.00000000</v>
    <i name="EFIELD">      0.00000000</i>
   </separator>
  </separator>
  <separator name="grids" >
   <i type="int" name="NGX">    28</i>
   <i type="int" name="NGY">    40</i>
   <i type="int" name="NGZ">    18</i>
   <i type="int" name="NGXF">    56</i>
   <i type="int" name="NGYF">    80</i>
   <i type="int" name="NGZF">    36</i>
   <i type="logical" name="ADDGRID"> F  </i>
  </separator>
  <separator name="ionic" >
   <i type="int" name="NSW">   500</i>
   <i type="int" name="IBRION">     2</i>
   <i type="int" name="MDALGO">     0</i>
   <i type="int" name="ISIF">     3</i>
   <i name="PSTRESS">      0.00000000</i>
   <i name="EDIFFG">     -0.01000000</i>
   <i type="int" name="NFREE">     1</i>
   <i name="POTIM">      0.50000000</i>
   <i name="SMASS">     -3.00000000</i>
   <i name="SCALEE">      1.00000000</i>
  </separator>
  <separator name="ionic md" >
   <i name="TEBEG">      0.00010000</i>
   <i name="TEEND">      0.00010000</i>
   <i type="int" name="NBLOCK">     1</i>
   <i type="int" name="KBLOCK">   500</i>
   <i type="int" name="NPACO">   256</i>
   <i name="APACO">     16.00000000</i>
  </separator>
  <separator name="symmetry" >
   <i type="int" name="ISYM">     2</i>
   <i name="SYMPREC">      0.00001000</i>
  </separator>
  <separator name="dos" >
   <i type="int" name="LORBIT">     0</i>
   <v name="RWIGS">     -1.00000000     -1.00000000</v>
   <i type="int" name="NEDOS">   301</i>
   <i name="EMIN">     10.00000000</i>
   <i name="EMAX">    -10.00000000</i>
   <i name="EFERMI">      0.00000000</i>
  </separator>
  <separator name="writing" >
   <i type="int" name="NWRITE">     2</i>
   <i type="logical" name="LWAVE"> F  </i>
   <i type="logical" name="LDOWNSAMPLE"> F  </i>
   <i type="logical" name="LCHARG"> F  </i>
   <i type="logical" name="LPARD"> F  </i>
   <i type="logical" name="LVTOT"> F  </i>
   <i type="logical" name="LVHAR"> F  </i>
   <i type="logical" name="LELF"> F  </i>
   <i type="logical" name="LOPTICS"> F  </i>
   <v name="STM">      0.00000000      0.00000000      0.00000000      0.00000000      0.00000000      0.00000000      0.00000000</v>
  </separator>
  <separator name="performance" >
   <i type="int" name="NPAR">     4</i>
   <i type="int" name="NSIM">     4</i>
   <i type="int" name="NBLK">    -1</i>
   <i type="logical" name="LPLANE"> T  </i>
   <i type="logical" name="LSCALAPACK"> T  </i>
   <i type="logical" name="LSCAAWARE"> F  </i>
   <i type="logical" name="LSCALU"> F  </i>
   <i type="logical" name="LASYNC"> F  </i>
   <i type="logical" name="LORBITALREAL"> F  </i>
  </separator>
  <separator name="miscellaneous" >
   <i type="int" name="IDIOT">     3</i>
   <i type="int" name="ISPECIAL">     0</i>
   <i type="logical" name="LMUSIC"> F  </i>
   <v name="POMASS">     50.94100000     55.84700000</v>
   <v name="DARWINR">      0.00000000      0.00000000</v>
   <v name="DARWINV">      1.00000000      1.00000000</v>
   <i type="logical" name="LCORR"> T  </i>
  </separator>
  <i type="logical" name="GGA_COMPAT"> T  </i>
  <i type="logical" name="LBERRY"> F  </i>
  <i type="int" name="ICORELEVEL">     0</i>
  <i type="logical" name="LDAU"> F  </i>
  <i type="int" name="I_CONSTRAINED_M">     0</i>
  <separator name="electronic exchange-correlation" >
   <i type="string" name="GGA">--</i>
   <i type="int" name="VOSKOWN">     0</i>
   <i type="logical" name="LHFCALC"> F  </i>
   <i type="string" name="PRECFOCK"></i>
   <i type="logical" name="LSYMGRAD"> F  </i>
   <i type="logical" name="LHFONE"> F  </i>
   <i type="logical" name="LRHFCALC"> F  </i>
   <i type="logical" name="LTHOMAS"> F  </i>
   <i type="logical" name="LMODELHF"> F  </i>
   <i name="ENCUT4O">     -1.00000000</i>
   <i type="int" name="EXXOEP">     0</i>
   <i type="int" name="FOURORBIT">     0</i>
   <i name="AEXX">      0.00000000</i>
   <i name="HFALPHA">      0.00000000</i>
   <i name="MCALPHA">      0.00000000</i>
   <i name="ALDAX">      1.00000000</i>
   <i name="AGGAX">      1.00000000</i>
   <i name="ALDAC">      1.00000000</i>
   <i name="AGGAC">      1.00000000</i>
   <i type="int" name="NKREDX">     1</i>
   <i type="int" name="NKREDY">     1</i>
   <i type="int" name="NKREDZ">     1</i>
   <i type="logical" name="SHIFTRED"> F  </i>
   <i type="logical" name="ODDONLY"> F  </i>
   <i type="logical" name="EVENONLY"> F  </i>
   <i type="int" name="LMAXFOCK">     0</i>
   <i type="int" name="NMAXFOCKAE">     0</i>
   <i type="logical" name="LFOCKAEDFT"> F  </i>
   <i name="HFSCREEN">      0.00000000</i>
   <i name="HFSCREENC">      0.00000000</i>
   <i type="int" name="NBANDSGWLOW">     0</i>
  </separator>
  <separator name="vdW DFT" >
   <i type="logical" name="LUSE_VDW"> F  </i>
   <i name="Zab_VDW">     -0.84910000</i>
   <i name="PARAM1">      0.12340000</i>
   <i name="PARAM2">      1.00000000</i>
   <i name="PARAM3">      0.00000000</i>
  </separator>
  <separator name="model GW" >
   <i type="int" name="MODEL_GW">     0</i>
   <i name="MODEL_EPS0">      7.77216124</i>
   <i name="MODEL_ALPHA">      1.00000000</i>
  </separator>
  <separator name="linear response parameters" >
   <i type="logical" name="LEPSILON"> F  </i>
   <i type="logical" name="LRPA"> F  </i>
   <i type="logical" name="LNABLA"> F  </i>
   <i type="logical" name="LVEL"> F  </i>
   <i type="int" name="KINTER">     0</i>
   <i name="CSHIFT">      0.10000000</i>
   <i name="OMEGAMAX">     -1.00000000</i>
   <i name="DEG_THRESHOLD">      0.00200000</i>
   <i name="RTIME">     -0.10000000</i>
   <i name="WPLASMAI">      0.00000000</i>
   <v name="DFIELD">      0.00000000      0.00000000      0.00000000</v>
   <v name="WPLASMA">      0.00000000      0.00000000      0.00000000      0.00000000      0.00000000      0.00000000      0.00000000      0.00000000      0.00000000</v>
  </separator>
  <separator name="orbital magnetization" >
   <i type="logical" name="NUCIND"> F  </i>
   <v name="MAGPOS">      0.00000000      0.00000000      0.00000000</v>
   <i type="logical" name="LNICSALL"> T  </i>
   <i type="logical" name="ORBITALMAG"> F  </i>
   <i type="logical" name="LMAGBLOCH"> F  </i>
   <i type="logical" name="LCHIMAG"> F  </i>
   <i type="logical" name="LGAUGE"> T  </i>
   <i type="int" name="MAGATOM">     0</i>
   <v name="MAGDIPOL">      0.00000000      0.00000000      0.00000000</v>
   <v name="AVECCONST">      0.00000000      0.00000000      0.00000000</v>
  </separator>
  <separator name="response functions" >
   <i type="logical" name="LADDER"> F  </i>
   <i type="logical" name="LRPAFORCE"> F  </i>
   <i type="logical" name="LFXC"> F  </i>
   <i type="logical" name="LHARTREE"> T  </i>
   <i type="int" name="IBSE">     0</i>
   <v type="int" name="KPOINT">    -1     0     0     0</v>
   <i type="logical" name="LTCTE"> F  </i>
   <i type="logical" name="LTETE"> F  </i>
   <i type="logical" name="LTRIPLET"> F  </i>
   <i type="logical" name="LFXCEPS"> F  </i>
   <i type="logical" name="LFXHEG"> F  </i>
   <i type="int" name="NATURALO">     2</i>
   <i type="logical" name="L2ORDER"> F  </i>
   <i type="logical" name="LMP2LT"> F  </i>
   <i type="logical" name="LUSEW"> F  </i>
   <i name="ENCUTGW">     -2.00000000</i>
   <i name="ENCUTGWSOFT">     -2.00000000</i>
   <i name="ENCUTLF">     -1.00000000</i>
   <i type="int" name="LMAXMP2">    -1</i>
   <i name="SCISSOR">      0.00000000</i>
   <i type="int" name="NOMEGA">     0</i>
   <i type="int" name="NOMEGAR">     0</i>
   <i type="int" name="NBANDSGW">    -1</i>
   <i type="int" name="NBANDSO">    -1</i>
   <i type="int" name="NBANDSV">    -1</i>
   <i type="int" name="NELM">     1</i>
   <i type="int" name="NELMHF">     1</i>
   <i type="int" name="DIM">     3</i>
   <i type="int" name="ANTIRES">     0</i>
   <i name="OMEGAMAX">    -30.00000000</i>
   <i name="OMEGAMIN">    -30.00000000</i>
   <i name="OMEGATL">   -200.00000000</i>
   <i type="int" name="OMEGAGRID">   140</i>
   <i name="CSHIFT">     -0.10000000</i>
   <i type="logical" name="SELFENERGY"> F  </i>
   <i type="logical" name="LSPECTRAL"> F  </i>
   <i type="logical" name="LSPECTRALGW"> F  </i>
   <i type="logical" name="LSINGLES"> F  </i>
   <i type="logical" name="LFERMIGW"> F  </i>
   <i type="logical" name="ODDONLYGW"> F  </i>
   <i type="logical" name="EVENONLYGW"> F  </i>
   <i type="int" name="NKREDLFX">     1</i>
   <i type="int" name="NKREDLFY">     1</i>
   <i type="int" name="NKREDLFZ">     1</i>
   <i type="int" name="MAXMEM">  2800</i>
   <i type="int" name="TELESCOPE">     0</i>
   <i type="int" name="TAUPAR">     1</i>
   <i type="int" name="OMEGAPAR">    -1</i>
   <i name="LAMBDA">      1.00000000</i>
  </separator>
  <separator name="External order field" >
   <i name="OFIELD_KAPPA">      0.00000000</i>
   <v name="OFIELD_K">      0.00000000      0.00000000      0.00000000</v>
   <i name="OFIELD_Q6_NEAR">      0.00000000</i>
   <i name="OFIELD_Q6_FAR">      0.00000000</i>
   <i name="OFIELD_A">      0.00000000</i>
  </separator>
 </parameters>
 <atominfo>
  <atoms>      20 </atoms>
  <types>       2 </types>
  <array name="atoms" >
   <dimension dim="1">ion</dimension>
   <field type="string">element</field>
   <field type="int">atomtype</field>
   <set>
    <rc><c>V </c><c>   1</c></rc>
    <rc><c>V </c><c>   1</c></rc>
    <rc><c>V </c><c>   1</c></rc>
    <rc><c>V </c><c>   1</c></rc>
    <rc><c>V </c><c>   1</c></rc>
    <rc><c>V </c><c>   1</c></rc>
    <rc><c>V </c><c>   1</c></rc>
    <rc><c>V </c><c>   1</c></rc>
    <rc><c>V </c><c>   1</c></rc>
    <rc><c>V </c><c>   1</c></rc>
    <rc><c>V </c><c>   1</c></rc>
    <rc><c>V </c><c>   1</c></rc>
    <rc><c>V </c><c>   1</c></rc>
    <rc><c>V </c><c>   1</c></rc>
    <rc><c>V </c><c>   1</c></rc>
    <rc><c>V </c><c>   1</c></rc>
    <rc><c>V </c><c>   1</c></rc>
    <rc><c>Fe</c><c>   2</c></rc>
    <rc><c>Fe</c><c>   2</c></rc>
    <rc><c>Fe</c><c>   2</c></rc>
   </set>
  </array>
  <array name="atomtypes" >
   <dimension dim="1">type</dimension>
   <field type="int">atomspertype</field>
   <field type="string">element</field>
   <field>mass</field>
   <field>valence</field>
   <field type="string">pseudopotential</field>
   <set>
    <rc><c>  17</c><c>V </c><c>     50.94100000</c><c>      5.00000000</c><c>  PAW_PBE V 08Apr2002                   </c></rc>
    <rc><c>   3</c><c>Fe</c><c>     55.84700000</c><c>      8.00000000</c><c>  PAW_PBE Fe 06Sep2000                  </c></rc>
   </set>
  </array>
 </atominfo>
 <structure name="initialpos" >
  <crystal>
   <varray name="basis" >
    <v>       6.36323800       0.00000000       0.00000000 </v>
    <v>      -1.78058200       9.57626400       0.00000000 </v>
    <v>       0.00049700      -0.00239500       4.25154000 </v>
   </varray>
   <i name="volume">    259.07204119 </i>
   <varray name="rec_basis" >
    <v>       0.15715269       0.02922050      -0.00000191 </v>
    <v>       0.00000000       0.10442486       0.00005883 </v>
    <v>       0.00000000       0.00000000       0.23520889 </v>
   </varray>
  </crystal>
  <varray name="positions" >
   <v>       0.32376100       0.76828900       0.48121600 </v>
   <v>       0.72093100       0.86875600       0.48248000 </v>
   <v>       0.70520700       0.36235800       0.48248000 </v>
   <v>       0.91859300       0.66649600       0.48043700 </v>
   <v>       0.12021400       0.46115800       0.48123700 </v>
   <v>       0.11499000       0.96586000       0.48388700 </v>
   <v>       0.92059200       0.16859300       0.48484900 </v>
   <v>       0.51130300       0.56141600       0.48063300 </v>
   <v>       0.51136200       0.06591000       0.48452000 </v>
   <v>       0.21997900       0.61348600       0.98058800 </v>
   <v>       0.22265600       0.12166100       0.98473200 </v>
   <v>       0.81086700       0.51475400       0.98065100 </v>
   <v>       0.02781500       0.81920200       0.98176800 </v>
   <v>       0.02309600       0.32011900       0.98320700 </v>
   <v>       0.81083700       0.01771300       0.98446900 </v>
   <v>       0.61209200       0.22270300       0.98431500 </v>
   <v>       0.61620700       0.72180700       0.98074300 </v>
   <v>       0.31335600       0.26150800       0.48336500 </v>
   <v>       0.41861500       0.42122800       0.98186800 </v>
   <v>       0.41715900       0.91778600       0.98306500 </v>
  </varray>
 </structure>
 <calculation>
  <scstep>
   <time name="dav">    1.96    2.10</time>
   <time name="total">    2.02    2.16</time>
   <energy>
    <i name="alphaZ">    552.45265842 </i>
    <i name="ewald">  -5295.24750529 </i>
    <i name="hartreedc">   -815.30008189 </i>
    <i name="XCdc">   -770.81217986 </i>
    <i name="pawpsdc">   5171.05454107 </i>
    <i name="pawaedc">  -4356.08836938 </i>
    <i name="eentropy">     -0.06496235 </i>
    <i name="bandstr">   1448.85517895 </i>
    <i name="atom">   4687.48422623 </i>
    <i name="e_fr_energy">    622.33350591 </i>
    <i name="e_wo_entrp">    622.39846826 </i>
    <i name="e_0_energy">    622.36598708 </i>
   </energy>
  </scstep>
  <scstep>
   <time name="dav">    1.59    1.60</time>
   <time name="total">    1.59    1.60</time>
   <energy>
    <i name="e_fr_energy">    -79.11657439 </i>
    <i name="e_wo_entrp">    -79.03043761 </i>
    <i name="e_0_energy">    -79.07350600 </i>
   </energy>
  </scstep>
  <scstep>
   <time name="dav">    2.03    2.05</time>
   <time name="total">    2.03    2.05</time>
   <energy>
    <i name="e_fr_energy">   -196.33364781 </i>
    <i name="e_wo_entrp">   -196.25660075 </i>
    <i name="e_0_energy">   -196.29512428 </i>
   </energy>
  </scstep>
  <scstep>
   <time name="dav">    2.05    2.07</time>
   <time name="total">    2.05    2.07</time>
   <energy>
    <i name="e_fr_energy">   -208.09510399 </i>
    <i name="e_wo_entrp">   -207.99992108 </i>
    <i name="e_0_energy">   -208.04751254 </i>
   </energy>
  </scstep>
  <scstep>
   <time name="dav">    1.99    2.45</time>
   <time name="total">    2.04    2.52</time>
   <energy>
    <i name="e_fr_energy">   -208.69122969 </i>
    <i name="e_wo_entrp">   -208.59299557 </i>
    <i name="e_0_energy">   -208.64211263 </i>
   </energy>
  </scstep>
  <scstep>
   <time name="dav">    2.84    3.49</time>
   <time name="total">    2.96    3.64</time>
   <energy>
    <i name="e_fr_energy">   -232.91358647 </i>
    <i name="e_wo_entrp">   -232.78429538 </i>
    <i name="e_0_energy">   -232.84894093 </i>
   </energy>
  </scstep>
  <scstep>
   <time name="dav">    2.41    2.41</time>
   <time name="total">    2.55    2.56</time>
   <energy>
    <i name="e_fr_energy">   -182.40169917 </i>
    <i name="e_wo_entrp">   -182.30169250 </i>
    <i name="e_0_energy">   -182.35169584 </i>
   </energy>
  </scstep>
  <scstep>
   <time name="dav">    2.72    2.83</time>
   <time name="total">    2.82    2.93</time>
   <energy>
    <i name="e_fr_energy">   -196.54263427 </i>
    <i name="e_wo_entrp">   -196.44032175 </i>
    <i name="e_0_energy">   -196.49147801 </i>
   </energy>
  </scstep>
  <scstep>
   <time name="dav">    2.43    3.64</time>
   <time name="total">    2.53    3.80</time>
   <energy>
    <i name="e_fr_energy">   -180.55528247 </i>
    <i name="e_wo_entrp">   -180.43715257 </i>
    <i name="e_0_energy">   -180.49621752 </i>
   </energy>
  </scstep>
  <scstep>
   <time name="dav">    3.00    3.62</time>
   <time name="total">    3.10    3.75</time>
   <energy>
    <i name="e_fr_energy">   -179.15719883 </i>
    <i name="e_wo_entrp">   -179.03557663 </i>
    <i name="e_0_energy">   -179.09638773 </i>
   </energy>
  </scstep>
  <scstep>
   <time name="dav">    2.30    2.31</time>
   <time name="total">    2.41    2.41</time>
   <energy>
    <i name="e_fr_energy">   -179.03212517 </i>
    <i name="e_wo_entrp">   -178.90992948 </i>
    <i name="e_0_energy">   -178.97102732 </i>
   </energy>
  </scstep>
  <scstep>
   <time name="dav">    2.45    2.46</time>
   <time name="total">    2.56    2.57</time>
   <energy>
    <i name="e_fr_energy">   -179.23419440 </i>
    <i name="e_wo_entrp">   -179.11776254 </i>
    <i name="e_0_energy">   -179.17597847 </i>
   </energy>
  </scstep>
  <scstep>
   <time name="dav">    2.06    2.07</time>
   <time name="total">    2.19    2.19</time>
   <energy>
    <i name="e_fr_energy">   -178.94552589 </i>
    <i name="e_wo_entrp">   -178.81960066 </i>
    <i name="e_0_energy">   -178.88256328 </i>
   </energy>
  </scstep>
  <scstep>
   <time name="dav">    2.52    2.56</time>
   <time name="total">    2.61    2.68</time>
   <energy>
    <i name="e_fr_energy">   -178.72102771 </i>
    <i name="e_wo_entrp">   -178.60259272 </i>
    <i name="e_0_energy">   -178.66181022 </i>
   </energy>
  </scstep>
  <scstep>
   <time name="dav">    2.83    2.83</time>
   <time name="total">    2.92    2.93</time>
   <energy>
    <i name="e_fr_energy">   -178.61113605 </i>
    <i name="e_wo_entrp">   -178.49604706 </i>
    <i name="e_0_energy">   -178.55359156 </i>
   </energy>
  </scstep>
  <scstep>
   <time name="dav">    2.34    2.58</time>
   <time name="total">    2.45    2.69</time>
   <energy>
    <i name="e_fr_energy">   -178.59603656 </i>
    <i name="e_wo_entrp">   -178.48248776 </i>
    <i name="e_0_energy">   -178.53926216 </i>
   </energy>
  </scstep>
  <scstep>
   <time name="dav">    2.32    2.51</time>
   <time name="total">    2.42    2.64</time>
   <energy>
    <i name="e_fr_energy">   -178.58050310 </i>
    <i name="e_wo_entrp">   -178.46618428 </i>
    <i name="e_0_energy">   -178.52334369 </i>
   </energy>
  </scstep>
  <scstep>
   <time name="dav">    2.29    2.47</time>
   <time name="total">    2.39    2.60</time>
   <energy>
    <i name="e_fr_energy">   -178.57917531 </i>
    <i name="e_wo_entrp">   -178.46613293 </i>
    <i name="e_0_energy">   -178.52265412 </i>
   </energy>
  </scstep>
  <scstep>
   <time name="dav">    2.39    3.35</time>
   <time name="total">    2.50    3.46</time>
   <energy>
    <i name="e_fr_energy">   -178.55986436 </i>
    <i name="e_wo_entrp">   -178.44667904 </i>
    <i name="e_0_energy">   -178.50327170 </i>
   </energy>
  </scstep>
  <scstep>
   <time name="dav">    2.23    2.39</time>
   <time name="total">    2.33    2.49</time>
   <energy>
    <i name="e_fr_energy">   -178.55803744 </i>
    <i name="e_wo_entrp">   -178.44508703 </i>
    <i name="e_0_energy">   -178.50156223 </i>
   </energy>
  </scstep>
  <scstep>
   <time name="dav">    2.39    2.64</time>
   <time name="total">    2.50    2.76</time>
   <energy>
    <i name="e_fr_energy">   -178.55511068 </i>
    <i name="e_wo_entrp">   -178.44256533 </i>
    <i name="e_0_energy">   -178.49883800 </i>
   </energy>
  </scstep>
  <scstep>
   <time name="dav">    2.68    3.77</time>
   <time name="total">    2.83    3.93</time>
   <energy>
    <i name="e_fr_energy">   -178.55483955 </i>
    <i name="e_wo_entrp">   -178.44240653 </i>
    <i name="e_0_energy">   -178.49862304 </i>
   </energy>
  </scstep>
  <scstep>
   <time name="dav">    1.98    2.77</time>
   <time name="total">    2.07    2.91</time>
   <energy>
    <i name="e_fr_energy">   -178.55449501 </i>
    <i name="e_wo_entrp">   -178.44217209 </i>
    <i name="e_0_energy">   -178.49833355 </i>
   </energy>
  </scstep>
  <scstep>
   <time name="dav">    2.05    2.13</time>
   <time name="total">    2.15    2.23</time>
   <energy>
    <i name="e_fr_energy">   -178.55451470 </i>
    <i name="e_wo_entrp">   -178.44213613 </i>
    <i name="e_0_energy">   -178.49832541 </i>
   </energy>
  </scstep>
  <scstep>
   <time name="dav">    2.04    2.05</time>
   <time name="total">    2.15    2.15</time>
   <energy>
    <i name="e_fr_energy">   -178.55451507 </i>
    <i name="e_wo_entrp">   -178.44224914 </i>
    <i name="e_0_energy">   -178.49838210 </i>
   </energy>
  </scstep>
  <scstep>
   <time name="dav">    1.78    1.80</time>
   <time name="total">    1.89    1.91</time>
   <energy>
    <i name="e_fr_energy">   -178.55450066 </i>
    <i name="e_wo_entrp">   -178.44216244 </i>
    <i name="e_0_energy">   -178.49833155 </i>
   </energy>
  </scstep>
  <scstep>
   <time name="dav">    1.38    1.38</time>
   <time name="total">    1.47    1.47</time>
   <energy>
    <i name="alphaZ">    552.45265842 </i>
    <i name="ewald">  -5295.24750529 </i>
    <i name="hartreedc">   -642.67872560 </i>
    <i name="XCdc">   -769.23780690 </i>
    <i name="pawpsdc">   7526.78875358 </i>
    <i name="pawaedc">  -6723.01427586 </i>
    <i name="eentropy">     -0.11231363 </i>
    <i name="bandstr">    485.01048950 </i>
    <i name="atom">   4687.48422623 </i>
    <i name="e_fr_energy">   -178.55449955 </i>
    <i name="e_wo_entrp">   -178.44218592 </i>
    <i name="e_0_energy">   -178.49834274 </i>
   </energy>
  </scstep>
  <structure>
   <crystal>
    <varray name="basis" >
     <v>       6.36323800       0.00000000       0.00000000 </v>
     <v>      -1.78058200       9.57626400       0.00000000 </v>
     <v>       0.00049700      -0.00239500       4.25154000 </v>
    </varray>
    <i name="volume">    259.07204119 </i>
    <varray name="rec_basis" >
     <v>       0.15715269       0.02922050      -0.00000191 </v>
     <v>       0.00000000       0.10442486       0.00005883 </v>
     <v>       0.00000000       0.00000000       0.23520889 </v>
    </varray>
   </crystal>
   <varray name="positions" >
    <v>       0.32376100       0.76828900       0.48121600 </v>
    <v>       0.72093100       0.86875600       0.48248000 </v>
    <v>       0.70520700       0.36235800       0.48248000 </v>
    <v>       0.91859300       0.66649600       0.48043700 </v>
    <v>       0.12021400       0.46115800       0.48123700 </v>
    <v>       0.11499000       0.96586000       0.48388700 </v>
    <v>       0.92059200       0.16859300       0.48484900 </v>
    <v>       0.51130300       0.56141600       0.48063300 </v>
    <v>       0.51136200       0.06591000       0.48452000 </v>
    <v>       0.21997900       0.61348600       0.98058800 </v>
    <v>       0.22265600       0.12166100       0.98473200 </v>
    <v>       0.81086700       0.51475400       0.98065100 </v>
    <v>       0.02781500       0.81920200       0.98176800 </v>
    <v>       0.02309600       0.32011900       0.98320700 </v>
    <v>       0.81083700       0.01771300       0.98446900 </v>
    <v>       0.61209200       0.22270300       0.98431500 </v>
    <v>       0.61620700       0.72180700       0.98074300 </v>
    <v>       0.31335600       0.26150800       0.48336500 </v>
    <v>       0.41861500       0.42122800       0.98186800 </v>
    <v>       0.41715900       0.91778600       0.98306500 </v>
   </varray>
  </structure>
  <varray name="forces" >
   <v>       0.00864033       0.00065283       0.00379415 </v>
   <v>       0.03240582       0.00501885       0.00041262 </v>
   <v>      -0.00928209      -0.05254485       0.00012134 </v>
   <v>      -0.01342276       0.00666670       0.00520306 </v>
   <v>       0.00782260       0.01653839       0.00336045 </v>
   <v>      -0.02206515       0.00559902      -0.00365029 </v>
   <v>       0.01537865      -0.01107755      -0.00831794 </v>
   <v>      -0.01858674       0.01453142       0.00474772 </v>
   <v>      -0.01066379      -0.00639399      -0.00316683 </v>
   <v>       0.03572771      -0.03062333       0.00367254 </v>
   <v>       0.00457972       0.03373358      -0.00707743 </v>
   <v>       0.02048234      -0.01245993       0.00359604 </v>
   <v>       0.00083243       0.02027268       0.00137415 </v>
   <v>      -0.02060531       0.02676517      -0.00121470 </v>
   <v>      -0.00346040      -0.00329789      -0.00520906 </v>
   <v>       0.00745356       0.00774034      -0.00710151 </v>
   <v>      -0.05940669      -0.00694643       0.00543293 </v>
   <v>       0.00798860      -0.01986188       0.00075292 </v>
   <v>       0.00836409       0.02012385       0.00475033 </v>
   <v>       0.00781709      -0.01443696      -0.00148050 </v>
  </varray>
  <varray name="stress" >
   <v>     -58.73065497      -2.23321205       0.08144777 </v>
   <v>      -2.23321213     -41.84097339      -0.16147105 </v>
   <v>       0.08144795      -0.16147111     -64.93352247 </v>
  </varray>
  <energy>
   <i name="e_fr_energy">   -178.55449955 </i>
   <i name="e_wo_entrp">   -178.49834274 </i>
   <i name="e_0_energy">     -0.11231363 </i>
  </energy>
  <time name="totalsc">   66.26   73.86</time>
 </calculation>
 <calculation>
  <scstep>
   <time name="dav">    1.31    1.31</time>
   <time name="total">    1.41    1.41</time>
   <energy>
    <i name="alphaZ">    589.72114834 </i>
    <i name="ewald">  -5411.59440727 </i>
    <i name="hartreedc">   -657.06132095 </i>
    <i name="XCdc">   -765.30040418 </i>
    <i name="pawpsdc">   7526.89251422 </i>
    <i name="pawaedc">  -6723.11742519 </i>
    <i name="eentropy">     -0.10465425 </i>
    <i name="bandstr">    571.60558311 </i>
    <i name="atom">   4687.48422623 </i>
    <i name="e_fr_energy">   -181.47473995 </i>
    <i name="e_wo_entrp">   -181.37008570 </i>
    <i name="e_0_energy">   -181.42241282 </i>
   </energy>
  </scstep>
  <scstep>
   <time name="dav">    2.52    2.53</time>
   <time name="total">    2.63    2.63</time>
   <energy>
    <i name="e_fr_energy">   -227.35369963 </i>
    <i name="e_wo_entrp">   -227.22320683 </i>
    <i name="e_0_energy">   -227.28845323 </i>
   </energy>
  </scstep>
  <scstep>
   <time name="dav">    3.28    3.29</time>
   <time name="total">    3.41    3.43</time>
   <energy>
    <i name="e_fr_energy">   -182.63942084 </i>
    <i name="e_wo_entrp">   -182.53322843 </i>
    <i name="e_0_energy">   -182.58632464 </i>
   </energy>
  </scstep>
  <scstep>
   <time name="dav">    2.81    4.41</time>
   <time name="total">    2.90    4.55</time>
   <energy>
    <i name="e_fr_energy">   -179.74702488 </i>
    <i name="e_wo_entrp">   -179.63762660 </i>
    <i name="e_0_energy">   -179.69232574 </i>
   </energy>
  </scstep>
  <scstep>
   <time name="dav">    2.78    3.21</time>
   <time name="total">    2.88    3.34</time>
   <energy>
    <i name="e_fr_energy">   -178.99748376 </i>
    <i name="e_wo_entrp">   -178.90274511 </i>
    <i name="e_0_energy">   -178.95011444 </i>
   </energy>
  </scstep>
  <scstep>
   <time name="dav">    2.31    3.69</time>
   <time name="total">    2.43    3.90</time>
   <energy>
    <i name="e_fr_energy">   -178.86935850 </i>
    <i name="e_wo_entrp">   -178.77762674 </i>
    <i name="e_0_energy">   -178.82349262 </i>
   </energy>
  </scstep>
  <scstep>
   <time name="dav">    2.45    2.58</time>
   <time name="total">    2.56    2.72</time>
   <energy>
    <i name="e_fr_energy">   -178.53242558 </i>
    <i name="e_wo_entrp">   -178.43702933 </i>
    <i name="e_0_energy">   -178.48472745 </i>
   </energy>
  </scstep>
  <scstep>
   <time name="dav">    2.81    2.82</time>
   <time name="total">    2.92    2.92</time>
   <energy>
    <i name="e_fr_energy">   -178.52438741 </i>
    <i name="e_wo_entrp">   -178.42799917 </i>
    <i name="e_0_energy">   -178.47619329 </i>
   </energy>
  </scstep>
  <scstep>
   <time name="dav">    2.98    2.98</time>
   <time name="total">    3.08    3.08</time>
   <energy>
    <i name="e_fr_energy">   -178.51082463 </i>
    <i name="e_wo_entrp">   -178.41534702 </i>
    <i name="e_0_energy">   -178.46308583 </i>
   </energy>
  </scstep>
  <scstep>
   <time name="dav">    2.29    3.50</time>
   <time name="total">    2.38    3.62</time>
   <energy>
    <i name="e_fr_energy">   -178.49517331 </i>
    <i name="e_wo_entrp">   -178.40021587 </i>
    <i name="e_0_energy">   -178.44769459 </i>
   </energy>
  </scstep>
  <scstep>
   <time name="dav">    2.43    3.43</time>
   <time name="total">    2.53    3.56</time>
   <energy>
    <i name="e_fr_energy">   -178.46759785 </i>
    <i name="e_wo_entrp">   -178.37293201 </i>
    <i name="e_0_energy">   -178.42026493 </i>
   </energy>
  </scstep>
  <scstep>
   <time name="dav">    2.19    2.22</time>
   <time name="total">    2.29    2.32</time>
   <energy>
    <i name="e_fr_energy">   -178.45948026 </i>
    <i name="e_wo_entrp">   -178.36572588 </i>
    <i name="e_0_energy">   -178.41260307 </i>
   </energy>
  </scstep>
  <scstep>
   <time name="dav">    2.21    2.21</time>
   <time name="total">    2.31    2.31</time>
   <energy>
    <i name="e_fr_energy">   -178.45812436 </i>
    <i name="e_wo_entrp">   -178.36444314 </i>
    <i name="e_0_energy">   -178.41128375 </i>
   </energy>
  </scstep>
  <scstep>
   <time name="dav">    2.07    2.66</time>
   <time name="total">    2.22    2.92</time>
   <energy>
    <i name="e_fr_energy">   -178.45735100 </i>
    <i name="e_wo_entrp">   -178.36367196 </i>
    <i name="e_0_energy">   -178.41051148 </i>
   </energy>
  </scstep>
  <scstep>
   <time name="dav">    2.43    2.62</time>
   <time name="total">    2.54    2.72</time>
   <energy>
    <i name="e_fr_energy">   -178.45524472 </i>
    <i name="e_wo_entrp">   -178.36179283 </i>
    <i name="e_0_energy">   -178.40851877 </i>
   </energy>
  </scstep>
  <scstep>
   <time name="dav">    2.50    3.73</time>
   <time name="total">    2.60    3.83</time>
   <energy>
    <i name="e_fr_energy">   -178.45472881 </i>
    <i name="e_wo_entrp">   -178.36119861 </i>
    <i name="e_0_energy">   -178.40796371 </i>
   </energy>
  </scstep>
  <scstep>
   <time name="dav">    2.61    2.62</time>
   <time name="total">    2.71    2.71</time>
   <energy>
    <i name="e_fr_energy">   -178.45426804 </i>
    <i name="e_wo_entrp">   -178.36084050 </i>
    <i name="e_0_energy">   -178.40755427 </i>
   </energy>
  </scstep>
  <scstep>
   <time name="dav">    1.78    2.55</time>
   <time name="total">    1.89    2.69</time>
   <energy>
    <i name="e_fr_energy">   -178.45426569 </i>
    <i name="e_wo_entrp">   -178.36081497 </i>
    <i name="e_0_energy">   -178.40754033 </i>
   </energy>
  </scstep>
  <scstep>
   <time name="dav">    1.60    2.49</time>
   <time name="total">    1.72    2.67</time>
   <energy>
    <i name="e_fr_energy">   -178.45423728 </i>
    <i name="e_wo_entrp">   -178.36079852 </i>
    <i name="e_0_energy">   -178.40751790 </i>
   </energy>
  </scstep>
  <scstep>
   <time name="dav">    1.98    2.27</time>
   <time name="total">    2.06    2.35</time>
   <energy>
    <i name="alphaZ">    589.72114834 </i>
    <i name="ewald">  -5411.59440727 </i>
    <i name="hartreedc">   -619.24675179 </i>
    <i name="XCdc">   -766.27849457 </i>
    <i name="pawpsdc">   8143.76043279 </i>
    <i name="pawaedc">  -7344.25972492 </i>
    <i name="eentropy">     -0.09344637 </i>
    <i name="bandstr">    542.05277976 </i>
    <i name="atom">   4687.48422623 </i>
    <i name="e_fr_energy">   -178.45423779 </i>
    <i name="e_wo_entrp">   -178.36079142 </i>
    <i name="e_0_energy">   -178.40751461 </i>
   </energy>
  </scstep>
  <structure>
   <crystal>
    <varray name="basis" >
     <v>       6.21747269      -0.00554267       0.00020215 </v>
     <v>      -1.74813484       9.42153294      -0.00065968 </v>
     <v>       0.00062276      -0.00262411       4.14386231 </v>
    </varray>
    <i name="volume">    242.69951702 </i>
    <varray name="rec_basis" >
     <v>       0.16086366       0.02984773      -0.00000527 </v>
     <v>       0.00009463       0.10615740       0.00006721 </v>
     <v>      -0.00000783       0.00001544       0.24132077 </v>
    </varray>
   </crystal>
   <varray name="positions" >
    <v>       0.32382743       0.76829230       0.48125905 </v>
    <v>       0.72118376       0.86878128       0.48248468 </v>
    <v>       0.70506256       0.36209329       0.48248138 </v>
    <v>       0.91850063       0.66652960       0.48049604 </v>
    <v>       0.12029662       0.46124133       0.48127513 </v>
    <v>       0.11483061       0.96588820       0.48384558 </v>
    <v>       0.92069298       0.16853717       0.48475462 </v>
    <v>       0.51118257       0.56148922       0.48068687 </v>
    <v>       0.51127214       0.06587778       0.48448407 </v>
    <v>       0.22020670       0.61333174       0.98062967 </v>
    <v>       0.22273828       0.12183092       0.98465169 </v>
    <v>       0.81100472       0.51469124       0.98069180 </v>
    <v>       0.02784989       0.81930413       0.98178359 </v>
    <v>       0.02297751       0.32025383       0.98319322 </v>
    <v>       0.81080612       0.01769637       0.98440989 </v>
    <v>       0.61215942       0.22274197       0.98423442 </v>
    <v>       0.61574682       0.72177202       0.98080465 </v>
    <v>       0.31338857       0.26140794       0.48337354 </v>
    <v>       0.41870678       0.42132939       0.98192190 </v>
    <v>       0.41719791       0.91771327       0.98304820 </v>
   </varray>
  </structure>
  <varray name="forces" >
   <v>       0.00168131      -0.00631430       0.00563077 </v>
   <v>      -0.07133284      -0.01365141      -0.00068588 </v>
   <v>      -0.01859237       0.04599078       0.00007917 </v>
   <v>      -0.02082234      -0.01586365       0.00625424 </v>
   <v>      -0.00239078       0.03184936       0.00359502 </v>
   <v>       0.06320290       0.02514121      -0.00515567 </v>
   <v>      -0.01413920       0.00175703      -0.00896050 </v>
   <v>       0.02932250       0.00055983       0.00775671 </v>
   <v>       0.00162668      -0.04713006      -0.00822223 </v>
   <v>      -0.03683424       0.07229013       0.00599546 </v>
   <v>      -0.00539973       0.00462953      -0.01017757 </v>
   <v>       0.01316291       0.02428159       0.00594262 </v>
   <v>      -0.00716459      -0.02856824       0.00241182 </v>
   <v>       0.02624597      -0.04154445      -0.00277484 </v>
   <v>       0.00866005       0.01571186      -0.00785372 </v>
   <v>      -0.00519050      -0.07012433      -0.00623635 </v>
   <v>       0.06057196      -0.02563093       0.00659514 </v>
   <v>       0.01599497       0.08275753       0.00259777 </v>
   <v>      -0.02439874      -0.06489894       0.00321328 </v>
   <v>      -0.01420392       0.00875745      -0.00000526 </v>
  </varray>
  <varray name="stress" >
   <v>      87.01335049      -4.51321078       0.03230576 </v>
   <v>      -4.51321077      90.15177918      -0.08719523 </v>
   <v>       0.03230581      -0.08719510      81.17058375 </v>
  </varray>
  <energy>
   <i name="e_fr_energy">   -178.45423779 </i>
   <i name="e_wo_entrp">   -178.40751461 </i>
   <i name="e_0_energy">     -0.09344637 </i>
  </energy>
  <time name="totalsc">   52.34   63.09</time>
 </calculation>
 <calculation>
  <scstep>
   <time name="dav">    1.93    2.63</time>
   <time name="total">    2.06    2.81</time>
   <energy>
    <i name="alphaZ">    568.32300682 </i>
    <i name="ewald">  -5345.42189597 </i>
    <i name="hartreedc">   -611.51556954 </i>
    <i name="XCdc">   -768.44005593 </i>
    <i name="pawpsdc">   8143.68522601 </i>
    <i name="pawaedc">  -7344.18775864 </i>
    <i name="eentropy">     -0.11201538 </i>
    <i name="bandstr">    490.51816296 </i>
    <i name="atom">   4687.48422623 </i>
    <i name="e_fr_energy">   -179.66667344 </i>
    <i name="e_wo_entrp">   -179.55465806 </i>
    <i name="e_0_energy">   -179.61066575 </i>
   </energy>
  </scstep>
  <scstep>
   <time name="dav">    2.55    2.94</time>
   <time name="total">    2.67    3.08</time>
   <energy>
    <i name="e_fr_energy">   -206.31276516 </i>
    <i name="e_wo_entrp">   -206.21785838 </i>
    <i name="e_0_energy">   -206.26531177 </i>
   </energy>
  </scstep>
  <scstep>
   <time name="dav">    2.31    2.99</time>
   <time name="total">    2.41    3.16</time>
   <energy>
    <i name="e_fr_energy">   -178.07312271 </i>
    <i name="e_wo_entrp">   -177.96818951 </i>
    <i name="e_0_energy">   -178.02065611 </i>
   </energy>
  </scstep>
  <scstep>
   <time name="dav">    2.18    2.51</time>
   <time name="total">    2.28    2.63</time>
   <energy>
    <i name="e_fr_energy">   -178.96459370 </i>
    <i name="e_wo_entrp">   -178.85071008 </i>
    <i name="e_0_energy">   -178.90765189 </i>
   </energy>
  </scstep>
  <scstep>
   <time name="dav">    2.81    2.81</time>
   <time name="total">    2.91    2.92</time>
   <energy>
    <i name="e_fr_energy">   -178.72988088 </i>
    <i name="e_wo_entrp">   -178.62536137 </i>
    <i name="e_0_energy">   -178.67762113 </i>
   </energy>
  </scstep>
  <scstep>
   <time name="dav">    2.66    2.67</time>
   <time name="total">    2.78    2.79</time>
   <energy>
    <i name="e_fr_energy">   -178.79194983 </i>
    <i name="e_wo_entrp">   -178.68831657 </i>
    <i name="e_0_energy">   -178.74013320 </i>
   </energy>
  </scstep>
  <scstep>
   <time name="dav">    2.72    4.11</time>
   <time name="total">    2.82    4.27</time>
   <energy>
    <i name="e_fr_energy">   -178.70334942 </i>
    <i name="e_wo_entrp">   -178.59944775 </i>
    <i name="e_0_energy">   -178.65139859 </i>
   </energy>
  </scstep>
  <scstep>
   <time name="dav">    2.60    2.82</time>
   <time name="total">    2.69    2.95</time>
   <energy>
    <i name="e_fr_energy">   -178.69270868 </i>
    <i name="e_wo_entrp">   -178.58911903 </i>
    <i name="e_0_energy">   -178.64091386 </i>
   </energy>
  </scstep>
  <scstep>
   <time name="dav">    2.89    3.29</time>
   <time name="total">    3.00    3.41</time>
   <energy>
    <i name="e_fr_energy">   -178.68894949 </i>
    <i name="e_wo_entrp">   -178.58533934 </i>
    <i name="e_0_energy">   -178.63714441 </i>
   </energy>
  </scstep>
  <scstep>
   <time name="dav">    2.06    2.29</time>
   <time name="total">    2.16    2.40</time>
   <energy>
    <i name="e_fr_energy">   -178.68668973 </i>
    <i name="e_wo_entrp">   -178.58269917 </i>
    <i name="e_0_energy">   -178.63469445 </i>
   </energy>
  </scstep>
  <scstep>
   <time name="dav">    1.98    1.99</time>
   <time name="total">    2.08    2.09</time>
   <energy>
    <i name="e_fr_energy">   -178.68671726 </i>
    <i name="e_wo_entrp">   -178.58284577 </i>
    <i name="e_0_energy">   -178.63478151 </i>
   </energy>
  </scstep>
  <scstep>
   <time name="dav">    2.40    2.64</time>
   <time name="total">    2.51    2.74</time>
   <energy>
    <i name="e_fr_energy">   -178.68631868 </i>
    <i name="e_wo_entrp">   -178.58218509 </i>
    <i name="e_0_energy">   -178.63425188 </i>
   </energy>
  </scstep>
  <scstep>
   <time name="dav">    2.39    2.39</time>
   <time name="total">    2.49    2.49</time>
   <energy>
    <i name="e_fr_energy">   -178.68627715 </i>
    <i name="e_wo_entrp">   -178.58205074 </i>
    <i name="e_0_energy">   -178.63416395 </i>
   </energy>
  </scstep>
  <scstep>
   <time name="dav">    2.00    2.00</time>
   <time name="total">    2.09    2.10</time>
   <energy>
    <i name="e_fr_energy">   -178.68620377 </i>
    <i name="e_wo_entrp">   -178.58207492 </i>
    <i name="e_0_energy">   -178.63413934 </i>
   </energy>
  </scstep>
  <scstep>
   <time name="dav">    2.39    2.50</time>
   <time name="total">    2.48    2.59</time>
   <energy>
    <i name="e_fr_energy">   -178.68620783 </i>
    <i name="e_wo_entrp">   -178.58205333 </i>
    <i name="e_0_energy">   -178.63413058 </i>
   </energy>
  </scstep>
  <scstep>
   <time name="dav">    2.13    2.40</time>
   <time name="total">    2.17    2.45</time>
   <energy>
    <i name="alphaZ">    568.32300682 </i>
    <i name="ewald">  -5345.42189597 </i>
    <i name="hartreedc">   -632.34493171 </i>
    <i name="XCdc">   -767.95549874 </i>
    <i name="pawpsdc">   7780.34944968 </i>
    <i name="pawaedc">  -6978.35205088 </i>
    <i name="eentropy">     -0.10413960 </i>
    <i name="bandstr">    509.33563623 </i>
    <i name="atom">   4687.48422623 </i>
    <i name="e_fr_energy">   -178.68619795 </i>
    <i name="e_wo_entrp">   -178.58205835 </i>
    <i name="e_0_energy">   -178.63412815 </i>
   </energy>
  </scstep>
  <structure>
   <crystal>
    <varray name="basis" >
     <v>       6.29959609      -0.00241996       0.00008826 </v>
     <v>      -1.76641540       9.50870759      -0.00028802 </v>
     <v>       0.00055191      -0.00249503       4.20452735 </v>
    </varray>
    <i name="volume">    251.83748706 </i>
    <varray name="rec_basis" >
     <v>       0.15875166       0.02949101      -0.00000334 </v>
     <v>       0.00004040       0.10517427       0.00006241 </v>
     <v>      -0.00000333       0.00000659       0.23783887 </v>
    </varray>
   </crystal>
   <varray name="positions" >
    <v>       0.32378912       0.76829039       0.48123417 </v>
    <v>       0.72103800       0.86876672       0.48248198 </v>
    <v>       0.70514577       0.36224493       0.48248060 </v>
    <v>       0.91855391       0.66651039       0.48046191 </v>
    <v>       0.12024900       0.46119358       0.48125308 </v>
    <v>       0.11492254       0.96587210       0.48386952 </v>
    <v>       0.92063472       0.16856911       0.48480918 </v>
    <v>       0.51125205       0.56144733       0.48065572 </v>
    <v>       0.51132395       0.06589626       0.48450484 </v>
    <v>       0.22007533       0.61342000       0.98060560 </v>
    <v>       0.22269088       0.12173359       0.98469810 </v>
    <v>       0.81092528       0.51472713       0.98066823 </v>
    <v>       0.02782980       0.81924563       0.98177457 </v>
    <v>       0.02304589       0.32017666       0.98320117 </v>
    <v>       0.81082392       0.01770591       0.98444406 </v>
    <v>       0.61212055       0.22271963       0.98428100 </v>
    <v>       0.61601219       0.72179221       0.98076900 </v>
    <v>       0.31336975       0.26146523       0.48336862 </v>
    <v>       0.41865389       0.42127130       0.98189074 </v>
    <v>       0.41717545       0.91775490       0.98305792 </v>
   </varray>
  </structure>
  <varray name="forces" >
   <v>       0.00859226      -0.00348446       0.00452842 </v>
   <v>      -0.01302986      -0.00156489      -0.00018900 </v>
   <v>      -0.01354784      -0.01291112      -0.00000905 </v>
   <v>      -0.01563404      -0.00331499       0.00551359 </v>
   <v>       0.00321300       0.02233313       0.00321501 </v>
   <v>       0.01276907       0.01311950      -0.00434387 </v>
   <v>       0.00311350      -0.00559976      -0.00853235 </v>
   <v>      -0.00138813       0.01057449       0.00593115 </v>
   <v>      -0.00479289      -0.02406823      -0.00523297 </v>
   <v>       0.00804930       0.01279064       0.00453027 </v>
   <v>      -0.00001781       0.02288889      -0.00852597 </v>
   <v>       0.01772020       0.00278665       0.00433609 </v>
   <v>       0.00004704      -0.00039935       0.00161158 </v>
   <v>      -0.00154464      -0.00092586      -0.00193897 </v>
   <v>      -0.00181763       0.00555879      -0.00633877 </v>
   <v>       0.00585902      -0.02493021      -0.00685693 </v>
   <v>      -0.01383796      -0.01411160       0.00579144 </v>
   <v>       0.01371543       0.02115199       0.00247093 </v>
   <v>      -0.00669916      -0.01410641       0.00475085 </v>
   <v>      -0.00076885      -0.00578721      -0.00071144 </v>
  </varray>
  <varray name="stress" >
   <v>      -0.44147743      -3.18648762       0.06440414 </v>
   <v>      -3.18648763      11.11926192      -0.13810073 </v>
   <v>       0.06440407      -0.13810078      -6.57073607 </v>
  </varray>
  <energy>
   <i name="e_fr_energy">   -178.68619795 </i>
   <i name="e_wo_entrp">   -178.63412815 </i>
   <i name="e_0_energy">     -0.10413960 </i>
  </energy>
  <time name="totalsc">   42.45   47.91</time>
 </calculation>
 <calculation>
  <scstep>
   <time name="dav">    1.60    1.91</time>
   <time name="total">    1.73    2.06</time>
   <energy>
    <i name="alphaZ">    568.15717041 </i>
    <i name="ewald">  -5344.80761972 </i>
    <i name="hartreedc">   -632.47599651 </i>
    <i name="XCdc">   -767.96931014 </i>
    <i name="pawpsdc">   7780.22527583 </i>
    <i name="pawaedc">  -6978.22964972 </i>
    <i name="eentropy">     -0.10509971 </i>
    <i name="bandstr">    509.02302427 </i>
    <i name="atom">   4687.48422623 </i>
    <i name="e_fr_energy">   -178.69797906 </i>
    <i name="e_wo_entrp">   -178.59287935 </i>
    <i name="e_0_energy">   -178.64542921 </i>
   </energy>
  </scstep>
  <scstep>
   <time name="dav">    2.53    2.72</time>
   <time name="total">    2.63    2.82</time>
   <energy>
    <i name="e_fr_energy">   -178.70155485 </i>
    <i name="e_wo_entrp">   -178.59711383 </i>
    <i name="e_0_energy">   -178.64933434 </i>
   </energy>
  </scstep>
  <scstep>
   <time name="dav">    2.82    2.87</time>
   <time name="total">    2.92    2.97</time>
   <energy>
    <i name="e_fr_energy">   -178.69573840 </i>
    <i name="e_wo_entrp">   -178.59079388 </i>
    <i name="e_0_energy">   -178.64326614 </i>
   </energy>
  </scstep>
  <scstep>
   <time name="dav">    2.48    3.31</time>
   <time name="total">    2.59    3.41</time>
   <energy>
    <i name="e_fr_energy">   -178.69868319 </i>
    <i name="e_wo_entrp">   -178.59374391 </i>
    <i name="e_0_energy">   -178.64621355 </i>
   </energy>
  </scstep>
  <scstep>
   <time name="dav">    2.89    3.23</time>
   <time name="total">    3.00    3.42</time>
   <energy>
    <i name="e_fr_energy">   -178.69407215 </i>
    <i name="e_wo_entrp">   -178.58952253 </i>
    <i name="e_0_energy">   -178.64179734 </i>
   </energy>
  </scstep>
  <scstep>
   <time name="dav">    2.68    3.12</time>
   <time name="total">    2.85    3.37</time>
   <energy>
    <i name="e_fr_energy">   -178.69376857 </i>
    <i name="e_wo_entrp">   -178.58910696 </i>
    <i name="e_0_energy">   -178.64143777 </i>
   </energy>
  </scstep>
  <scstep>
   <time name="dav">    2.72    3.38</time>
   <time name="total">    2.89    3.55</time>
   <energy>
    <i name="e_fr_energy">   -178.69378009 </i>
    <i name="e_wo_entrp">   -178.58911367 </i>
    <i name="e_0_energy">   -178.64144688 </i>
   </energy>
  </scstep>
  <scstep>
   <time name="dav">    2.14    2.20</time>
   <time name="total">    2.27    2.38</time>
   <energy>
    <i name="e_fr_energy">   -178.69373873 </i>
    <i name="e_wo_entrp">   -178.58908140 </i>
    <i name="e_0_energy">   -178.64141007 </i>
   </energy>
  </scstep>
  <scstep>
   <time name="dav">    2.00    2.48</time>
   <time name="total">    2.05    2.52</time>
   <energy>
    <i name="alphaZ">    568.15717041 </i>
    <i name="ewald">  -5344.80761972 </i>
    <i name="hartreedc">   -632.55527247 </i>
    <i name="XCdc">   -767.96945585 </i>
    <i name="pawpsdc">   7776.67809064 </i>
    <i name="pawaedc">  -6974.67848284 </i>
    <i name="eentropy">     -0.10466166 </i>
    <i name="bandstr">    509.10226273 </i>
    <i name="atom">   4687.48422623 </i>
    <i name="e_fr_energy">   -178.69374254 </i>
    <i name="e_wo_entrp">   -178.58908087 </i>
    <i name="e_0_energy">   -178.64141170 </i>
   </energy>
  </scstep>
  <structure>
   <crystal>
    <varray name="basis" >
     <v>       6.29625082      -0.00927339       0.00022798 </v>
     <v>      -1.77580865       9.54360341      -0.00077827 </v>
     <v>       0.00064766      -0.00270406       4.19345300 </v>
    </varray>
    <i name="volume">    251.91099458 </i>
    <varray name="rec_basis" >
     <v>       0.15886822       0.02956111      -0.00000547 </v>
     <v>       0.00015437       0.10481095       0.00006756 </v>
     <v>      -0.00000861       0.00001784       0.23846698 </v>
    </varray>
   </crystal>
   <varray name="positions" >
    <v>       0.32384423       0.76827478       0.48128100 </v>
    <v>       0.72095175       0.86876008       0.48248014 </v>
    <v>       0.70503496       0.36218232       0.48248053 </v>
    <v>       0.91844192       0.66649602       0.48051904 </v>
    <v>       0.12030042       0.46129555       0.48128647 </v>
    <v>       0.11502318       0.96593166       0.48382459 </v>
    <v>       0.92065052       0.16854294       0.48472071 </v>
    <v>       0.51125393       0.56149618       0.48071702 </v>
    <v>       0.51125948       0.06578734       0.48445095 </v>
    <v>       0.22015003       0.61347501       0.98065243 </v>
    <v>       0.22272105       0.12183948       0.98460994 </v>
    <v>       0.81105154       0.51473866       0.98071306 </v>
    <v>       0.02783021       0.81924556       0.98179124 </v>
    <v>       0.02303222       0.32017475       0.98318119 </v>
    <v>       0.81081807       0.01773063       0.98437853 </v>
    <v>       0.61213003       0.22260804       0.98420981 </v>
    <v>       0.61589257       0.72172807       0.98082901 </v>
    <v>       0.31349021       0.26155881       0.48339392 </v>
    <v>       0.41859210       0.42120950       0.98194002 </v>
    <v>       0.41716357       0.91772762       0.98305039 </v>
   </varray>
  </structure>
  <varray name="forces" >
   <v>      -0.00285601       0.00359521       0.00354265 </v>
   <v>       0.00178950      -0.00088058       0.00008997 </v>
   <v>      -0.00148602       0.00165171       0.00015602 </v>
   <v>      -0.00349527      -0.00068634       0.00500425 </v>
   <v>      -0.00454894      -0.00090172       0.00297101 </v>
   <v>      -0.00111343       0.00595573      -0.00403362 </v>
   <v>       0.00127550       0.00104052      -0.00708162 </v>
   <v>       0.00517636      -0.00569179       0.00456196 </v>
   <v>      -0.00299488      -0.00822192      -0.00572111 </v>
   <v>      -0.01028303       0.00047331       0.00464783 </v>
   <v>      -0.00227465      -0.00072864      -0.00602597 </v>
   <v>       0.00053625      -0.00522501       0.00433424 </v>
   <v>      -0.00185830       0.00363226       0.00135307 </v>
   <v>       0.00335741       0.00299899      -0.00159816 </v>
   <v>       0.00164873      -0.00142386      -0.00596797 </v>
   <v>       0.00642902      -0.00477049      -0.00493846 </v>
   <v>       0.01474444       0.00420113       0.00479679 </v>
   <v>       0.00478499       0.00993714       0.00046648 </v>
   <v>      -0.00482624      -0.00095614       0.00398124 </v>
   <v>      -0.00400544      -0.00399950      -0.00053861 </v>
  </varray>
  <varray name="stress" >
   <v>       0.59117039      -3.10046888       0.00416809 </v>
   <v>      -3.10046882       4.66769079      -0.12337390 </v>
   <v>       0.00416809      -0.12337407      -3.43867655 </v>
  </varray>
  <energy>
   <i name="e_fr_energy">   -178.69374254 </i>
   <i name="e_wo_entrp">   -178.64141170 </i>
   <i name="e_0_energy">     -0.10466166 </i>
  </energy>
  <time name="totalsc">   25.53   29.79</time>
 </calculation>
 <calculation>
  <scstep>
   <time name="dav">    1.62    2.20</time>
   <time name="total">    1.72    2.32</time>
   <energy>
    <i name="alphaZ">    567.99023610 </i>
    <i name="ewald">  -5344.14186124 </i>
    <i name="hartreedc">   -632.72438215 </i>
    <i name="XCdc">   -767.98361562 </i>
    <i name="pawpsdc">   7776.64078044 </i>
    <i name="pawaedc">  -6974.64119642 </i>
    <i name="eentropy">     -0.10597832 </i>
    <i name="bandstr">    508.78055110 </i>
    <i name="atom">   4687.48422623 </i>
    <i name="e_fr_energy">   -178.70123990 </i>
    <i name="e_wo_entrp">   -178.59526157 </i>
    <i name="e_0_energy">   -178.64825073 </i>
   </energy>
  </scstep>
  <scstep>
   <time name="dav">    2.68    3.08</time>
   <time name="total">    2.78    3.20</time>
   <energy>
    <i name="e_fr_energy">   -178.70542974 </i>
    <i name="e_wo_entrp">   -178.59980927 </i>
    <i name="e_0_energy">   -178.65261950 </i>
   </energy>
  </scstep>
  <scstep>
   <time name="dav">    3.77    4.23</time>
   <time name="total">    3.96    4.42</time>
   <energy>
    <i name="e_fr_energy">   -178.69863008 </i>
    <i name="e_wo_entrp">   -178.59288562 </i>
    <i name="e_0_energy">   -178.64575785 </i>
   </energy>
  </scstep>
  <scstep>
   <time name="dav">    2.81    2.82</time>
   <time name="total">    2.92    2.93</time>
   <energy>
    <i name="e_fr_energy">   -178.70233177 </i>
    <i name="e_wo_entrp">   -178.59643080 </i>
    <i name="e_0_energy">   -178.64938128 </i>
   </energy>
  </scstep>
  <scstep>
   <time name="dav">    2.82    3.20</time>
   <time name="total">    2.95    3.33</time>
   <energy>
    <i name="e_fr_energy">   -178.69668623 </i>
    <i name="e_wo_entrp">   -178.59120511 </i>
    <i name="e_0_energy">   -178.64394567 </i>
   </energy>
  </scstep>
  <scstep>
   <time name="dav">    2.59    3.11</time>
   <time name="total">    2.72    3.28</time>
   <energy>
    <i name="e_fr_energy">   -178.69621725 </i>
    <i name="e_wo_entrp">   -178.59064401 </i>
    <i name="e_0_energy">   -178.64343063 </i>
   </energy>
  </scstep>
  <scstep>
   <time name="dav">    2.37    2.83</time>
   <time name="total">    2.47    2.96</time>
   <energy>
    <i name="e_fr_energy">   -178.69624529 </i>
    <i name="e_wo_entrp">   -178.59066394 </i>
    <i name="e_0_energy">   -178.64345462 </i>
   </energy>
  </scstep>
  <scstep>
   <time name="dav">    2.06    2.29</time>
   <time name="total">    2.16    2.45</time>
   <energy>
    <i name="e_fr_energy">   -178.69618876 </i>
    <i name="e_wo_entrp">   -178.59060590 </i>
    <i name="e_0_energy">   -178.64339733 </i>
   </energy>
  </scstep>
  <scstep>
   <time name="dav">    2.07    2.47</time>
   <time name="total">    2.25    2.66</time>
   <energy>
    <i name="e_fr_energy">   -178.69619546 </i>
    <i name="e_wo_entrp">   -178.59061808 </i>
    <i name="e_0_energy">   -178.64340677 </i>
   </energy>
  </scstep>
  <scstep>
   <time name="dav">    1.51    2.24</time>
   <time name="total">    1.59    2.32</time>
   <energy>
    <i name="alphaZ">    567.99023610 </i>
    <i name="ewald">  -5344.14186124 </i>
    <i name="hartreedc">   -632.81712465 </i>
    <i name="XCdc">   -767.98301480 </i>
    <i name="pawpsdc">   7773.14490192 </i>
    <i name="pawaedc">  -6971.13237748 </i>
    <i name="eentropy">     -0.10559031 </i>
    <i name="bandstr">    508.86441857 </i>
    <i name="atom">   4687.48422623 </i>
    <i name="e_fr_energy">   -178.69618566 </i>
    <i name="e_wo_entrp">   -178.59059535 </i>
    <i name="e_0_energy">   -178.64339050 </i>
   </energy>
  </scstep>
  <structure>
   <crystal>
    <varray name="basis" >
     <v>       6.29260066      -0.01675145       0.00038044 </v>
     <v>      -1.78605801       9.58167967      -0.00131320 </v>
     <v>       0.00075214      -0.00293213       4.18136932 </v>
    </varray>
    <i name="volume">    251.98503211 </i>
    <varray name="rec_basis" >
     <v>       0.15899570       0.02963734      -0.00000782 </v>
     <v>       0.00027796       0.10441766       0.00007317 </v>
     <v>      -0.00001438       0.00003010       0.23915613 </v>
    </varray>
   </crystal>
   <varray name="positions" >
    <v>       0.32390440       0.76825786       0.48133223 </v>
    <v>       0.72085756       0.86875279       0.48247812 </v>
    <v>       0.70491394       0.36211417       0.48248045 </v>
    <v>       0.91831963       0.66648031       0.48058155 </v>
    <v>       0.12035663       0.46140644       0.48132300 </v>
    <v>       0.11513311       0.96599647       0.48377545 </v>
    <v>       0.92066776       0.16851450       0.48462393 </v>
    <v>       0.51125601       0.56154930       0.48078409 </v>
    <v>       0.51118903       0.06566887       0.48439198 </v>
    <v>       0.22023161       0.61353488       0.98070367 </v>
    <v>       0.22275404       0.12195461       0.98451351 </v>
    <v>       0.81118942       0.51475130       0.98076211 </v>
    <v>       0.02783065       0.81924548       0.98180948 </v>
    <v>       0.02301730       0.32017267       0.98315934 </v>
    <v>       0.81081169       0.01775751       0.98430684 </v>
    <v>       0.61214033       0.22248673       0.98413193 </v>
    <v>       0.61576191       0.72165826       0.98089465 </v>
    <v>       0.31362179       0.26166063       0.48342161 </v>
    <v>       0.41852460       0.42114226       0.98199392 </v>
    <v>       0.41715060       0.91769795       0.98304215 </v>
   </varray>
  </structure>
  <varray name="forces" >
   <v>      -0.01258101       0.00621477       0.00240591 </v>
   <v>       0.01601502      -0.00556562       0.00045609 </v>
   <v>       0.01064058       0.01387232       0.00031684 </v>
   <v>       0.00815709       0.00639759       0.00436530 </v>
   <v>      -0.01095935      -0.02276298       0.00276597 </v>
   <v>      -0.01748137      -0.00248589      -0.00373941 </v>
   <v>      -0.00220420       0.00896706      -0.00535568 </v>
   <v>       0.01164748      -0.01698258       0.00306709 </v>
   <v>       0.00265448       0.00905804      -0.00619153 </v>
   <v>      -0.02475646      -0.00996721       0.00471116 </v>
   <v>      -0.00500252      -0.02412548      -0.00322252 </v>
   <v>      -0.02002393      -0.01267621       0.00431901 </v>
   <v>      -0.00608812       0.00523405       0.00105349 </v>
   <v>       0.00833401       0.00242012      -0.00121231 </v>
   <v>       0.00695247      -0.00759178      -0.00547630 </v>
   <v>       0.00781422       0.01772834      -0.00276507 </v>
   <v>       0.04265497       0.02400883       0.00364830 </v>
   <v>      -0.00758216      -0.00188922      -0.00184882 </v>
   <v>      -0.00243413       0.01291659       0.00305590 </v>
   <v>      -0.00575707      -0.00277075      -0.00035340 </v>
  </varray>
  <varray name="stress" >
   <v>       1.98992656      -3.26696465      -0.06366097 </v>
   <v>      -3.26696462      -2.04704381      -0.10396057 </v>
   <v>      -0.06366103      -0.10396054       0.05349016 </v>
  </varray>
  <energy>
   <i name="e_fr_energy">   -178.69618566 </i>
   <i name="e_wo_entrp">   -178.64339050 </i>
   <i name="e_0_energy">     -0.10559031 </i>
  </energy>
  <time name="totalsc">   28.18   32.54</time>
 </calculation>
 <calculation>
  <scstep>
   <time name="dav">    2.07    2.39</time>
   <time name="total">    2.17    2.50</time>
   <energy>
    <i name="alphaZ">    568.00190553 </i>
    <i name="ewald">  -5344.19021101 </i>
    <i name="hartreedc">   -632.80247884 </i>
    <i name="XCdc">   -767.98202321 </i>
    <i name="pawpsdc">   7773.11300711 </i>
    <i name="pawaedc">  -6971.10053826 </i>
    <i name="eentropy">     -0.10549219 </i>
    <i name="bandstr">    508.88537206 </i>
    <i name="atom">   4687.48422623 </i>
    <i name="e_fr_energy">   -178.69623259 </i>
    <i name="e_wo_entrp">   -178.59074040 </i>
    <i name="e_0_energy">   -178.64348650 </i>
   </energy>
  </scstep>
  <scstep>
   <time name="dav">    2.88    3.90</time>
   <time name="total">    3.04    4.06</time>
   <energy>
    <i name="e_fr_energy">   -178.69627846 </i>
    <i name="e_wo_entrp">   -178.59073030 </i>
    <i name="e_0_energy">   -178.64350438 </i>
   </energy>
  </scstep>
  <scstep>
   <time name="dav">    3.27    3.80</time>
   <time name="total">    3.42    3.95</time>
   <energy>
    <i name="e_fr_energy">   -178.69621602 </i>
    <i name="e_wo_entrp">   -178.59070908 </i>
    <i name="e_0_energy">   -178.64346255 </i>
   </energy>
  </scstep>
  <scstep>
   <time name="dav">    2.85    2.85</time>
   <time name="total">    2.94    2.95</time>
   <energy>
    <i name="e_fr_energy">   -178.69623932 </i>
    <i name="e_wo_entrp">   -178.59073268 </i>
    <i name="e_0_energy">   -178.64348600 </i>
   </energy>
  </scstep>
  <scstep>
   <time name="dav">    2.99    3.15</time>
   <time name="total">    3.09    3.25</time>
   <energy>
    <i name="e_fr_energy">   -178.69621001 </i>
    <i name="e_wo_entrp">   -178.59067134 </i>
    <i name="e_0_energy">   -178.64344068 </i>
   </energy>
  </scstep>
  <scstep>
   <time name="dav">    1.08    1.33</time>
   <time name="total">    1.12    1.38</time>
   <energy>
    <i name="alphaZ">    568.00190553 </i>
    <i name="ewald">  -5344.19021101 </i>
    <i name="hartreedc">   -632.79616974 </i>
    <i name="XCdc">   -767.98213001 </i>
    <i name="pawpsdc">   7773.32176716 </i>
    <i name="pawaedc">  -6971.31055663 </i>
    <i name="eentropy">     -0.10552378 </i>
    <i name="bandstr">    508.88048901 </i>
    <i name="atom">   4687.48422623 </i>
    <i name="e_fr_energy">   -178.69620325 </i>
    <i name="e_wo_entrp">   -178.59067947 </i>
    <i name="e_0_energy">   -178.64344136 </i>
   </energy>
  </scstep>
  <structure>
   <crystal>
    <varray name="basis" >
     <v>       6.29286660      -0.01620663       0.00036933 </v>
     <v>      -1.78531129       9.57890558      -0.00127422 </v>
     <v>       0.00074453      -0.00291552       4.18224969 </v>
    </varray>
    <i name="volume">    251.97985515 </i>
    <varray name="rec_basis" >
     <v>       0.15898640       0.02963180      -0.00000765 </v>
     <v>       0.00026899       0.10444620       0.00007276 </v>
     <v>      -0.00001396       0.00002921       0.23910579 </v>
    </varray>
   </crystal>
   <varray name="positions" >
    <v>       0.32390002       0.76825909       0.48132848 </v>
    <v>       0.72086443       0.86875332       0.48247827 </v>
    <v>       0.70492277       0.36211912       0.48248046 </v>
    <v>       0.91832855       0.66648145       0.48057698 </v>
    <v>       0.12035252       0.46139839       0.48132033 </v>
    <v>       0.11512509       0.96599176       0.48377904 </v>
    <v>       0.92066650       0.16851657       0.48463100 </v>
    <v>       0.51125585       0.56154544       0.48077919 </v>
    <v>       0.51119417       0.06567747       0.48439629 </v>
    <v>       0.22022566       0.61353053       0.98069993 </v>
    <v>       0.22275163       0.12194626       0.98452056 </v>
    <v>       0.81117936       0.51475038       0.98075852 </v>
    <v>       0.02783062       0.81924549       0.98180815 </v>
    <v>       0.02301839       0.32017282       0.98316094 </v>
    <v>       0.81081215       0.01775556       0.98431207 </v>
    <v>       0.61213959       0.22249553       0.98413762 </v>
    <v>       0.61577144       0.72166333       0.98088985 </v>
    <v>       0.31361219       0.26165323       0.48341959 </v>
    <v>       0.41852953       0.42114715       0.98198998 </v>
    <v>       0.41715154       0.91770011       0.98304275 </v>
   </varray>
  </structure>
  <varray name="forces" >
   <v>      -0.01163694       0.00470946       0.00245107 </v>
   <v>       0.01514437      -0.00638277       0.00044095 </v>
   <v>       0.00860039       0.01191435       0.00026350 </v>
   <v>       0.00643481       0.00693170       0.00437301 </v>
   <v>      -0.00842867      -0.02038741       0.00276326 </v>
   <v>      -0.01595342      -0.00147799      -0.00372569 </v>
   <v>      -0.00239779       0.00879011      -0.00542276 </v>
   <v>       0.01113299      -0.01526738       0.00313564 </v>
   <v>       0.00216783       0.00906716      -0.00611069 </v>
   <v>      -0.02160569      -0.00783992       0.00467178 </v>
   <v>      -0.00421710      -0.02235078      -0.00337873 </v>
   <v>      -0.01930473      -0.01091665       0.00430478 </v>
   <v>      -0.00496061       0.00441060       0.00106843 </v>
   <v>       0.00811830      -0.00018325      -0.00126446 </v>
   <v>       0.00623223      -0.00553423      -0.00547173 </v>
   <v>       0.00775975       0.01572613      -0.00288843 </v>
   <v>       0.03883567       0.02191694       0.00369736 </v>
   <v>      -0.00674897      -0.00187113      -0.00168290 </v>
   <v>      -0.00327583       0.01263671       0.00314987 </v>
   <v>      -0.00589660      -0.00389165      -0.00037426 </v>
  </varray>
  <varray name="stress" >
   <v>       1.89726574      -3.21791429      -0.05920978 </v>
   <v>      -3.21791436      -1.65033328      -0.10568457 </v>
   <v>      -0.05920974      -0.10568454      -0.15751817 </v>
  </varray>
  <energy>
   <i name="e_fr_energy">   -178.69620325 </i>
   <i name="e_wo_entrp">   -178.64344136 </i>
   <i name="e_0_energy">     -0.10552378 </i>
  </energy>
  <time name="totalsc">   18.29   21.67</time>
 </calculation>
 <calculation>
  <scstep>
   <time name="dav">    1.39    1.87</time>
   <time name="total">    1.49    1.98</time>
   <energy>
    <i name="alphaZ">    567.94696149 </i>
    <i name="ewald">  -5344.19438077 </i>
    <i name="hartreedc">   -632.66506132 </i>
    <i name="XCdc">   -767.98689314 </i>
    <i name="pawpsdc">   7773.31895477 </i>
    <i name="pawaedc">  -6971.30770785 </i>
    <i name="eentropy">     -0.10632755 </i>
    <i name="bandstr">    508.81118874 </i>
    <i name="atom">   4687.48422623 </i>
    <i name="e_fr_energy">   -178.69903940 </i>
    <i name="e_wo_entrp">   -178.59271185 </i>
    <i name="e_0_energy">   -178.64587562 </i>
   </energy>
  </scstep>
  <scstep>
   <time name="dav">    2.81    3.21</time>
   <time name="total">    2.90    3.31</time>
   <energy>
    <i name="e_fr_energy">   -178.69917396 </i>
    <i name="e_wo_entrp">   -178.59298297 </i>
    <i name="e_0_energy">   -178.64607846 </i>
   </energy>
  </scstep>
  <scstep>
   <time name="dav">    2.66    2.93</time>
   <time name="total">    2.76    3.05</time>
   <energy>
    <i name="e_fr_energy">   -178.69861115 </i>
    <i name="e_wo_entrp">   -178.59255074 </i>
    <i name="e_0_energy">   -178.64558094 </i>
   </energy>
  </scstep>
  <scstep>
   <time name="dav">    2.84    4.39</time>
   <time name="total">    2.98    4.63</time>
   <energy>
    <i name="e_fr_energy">   -178.69918091 </i>
    <i name="e_wo_entrp">   -178.59320993 </i>
    <i name="e_0_energy">   -178.64619542 </i>
   </energy>
  </scstep>
  <scstep>
   <time name="dav">    2.93    4.04</time>
   <time name="total">    3.09    4.32</time>
   <energy>
    <i name="e_fr_energy">   -178.69788186 </i>
    <i name="e_wo_entrp">   -178.59194656 </i>
    <i name="e_0_energy">   -178.64491421 </i>
   </energy>
  </scstep>
  <scstep>
   <time name="dav">    2.90    3.21</time>
   <time name="total">    3.00    3.36</time>
   <energy>
    <i name="e_fr_energy">   -178.69780646 </i>
    <i name="e_wo_entrp">   -178.59188128 </i>
    <i name="e_0_energy">   -178.64484387 </i>
   </energy>
  </scstep>
  <scstep>
   <time name="dav">    2.68    3.24</time>
   <time name="total">    2.83    3.43</time>
   <energy>
    <i name="e_fr_energy">   -178.69781006 </i>
    <i name="e_wo_entrp">   -178.59190983 </i>
    <i name="e_0_energy">   -178.64485995 </i>
   </energy>
  </scstep>
  <scstep>
   <time name="dav">    2.17    2.28</time>
   <time name="total">    2.27    2.39</time>
   <energy>
    <i name="e_fr_energy">   -178.69778943 </i>
    <i name="e_wo_entrp">   -178.59186041 </i>
    <i name="e_0_energy">   -178.64482492 </i>
   </energy>
  </scstep>
  <scstep>
   <time name="dav">    1.11    1.65</time>
   <time name="total">    1.16    1.74</time>
   <energy>
    <i name="alphaZ">    567.94696149 </i>
    <i name="ewald">  -5344.19438077 </i>
    <i name="hartreedc">   -632.68038748 </i>
    <i name="XCdc">   -767.98782907 </i>
    <i name="pawpsdc">   7772.10930221 </i>
    <i name="pawaedc">  -6970.09059487 </i>
    <i name="eentropy">     -0.10594382 </i>
    <i name="bandstr">    508.82085642 </i>
    <i name="atom">   4687.48422623 </i>
    <i name="e_fr_energy">   -178.69778966 </i>
    <i name="e_wo_entrp">   -178.59184584 </i>
    <i name="e_0_energy">   -178.64481775 </i>
   </energy>
  </scstep>
  <structure>
   <crystal>
    <varray name="basis" >
     <v>       6.29702404      -0.02583333       0.00024838 </v>
     <v>      -1.80113588       9.58218632      -0.00174386 </v>
     <v>       0.00066867      -0.00313727       4.17967928 </v>
    </varray>
    <i name="volume">    252.00423205 </i>
    <varray name="rec_basis" >
     <v>       0.15892773       0.02987319      -0.00000300 </v>
     <v>       0.00042846       0.10444087       0.00007832 </v>
     <v>      -0.00000927       0.00004180       0.23925284 </v>
    </varray>
   </crystal>
   <varray name="positions" >
    <v>       0.32382352       0.76828103       0.48136851 </v>
    <v>       0.72096055       0.86871782       0.48248329 </v>
    <v>       0.70498809       0.36217025       0.48248369 </v>
    <v>       0.91836831       0.66651580       0.48064282 </v>
    <v>       0.12026325       0.46130987       0.48136133 </v>
    <v>       0.11501339       0.96599598       0.48372375 </v>
    <v>       0.92066359       0.16855834       0.48454568 </v>
    <v>       0.51132407       0.56147368       0.48083064 </v>
    <v>       0.51121221       0.06570358       0.48430976 </v>
    <v>       0.22005257       0.61349955       0.98076727 </v>
    <v>       0.22268938       0.12184803       0.98446042 </v>
    <v>       0.81103120       0.51469387       0.98082092 </v>
    <v>       0.02779684       0.81926912       0.98182481 </v>
    <v>       0.02308167       0.32017154       0.98314117 </v>
    <v>       0.81085349       0.01773100       0.98423095 </v>
    <v>       0.61222903       0.22255700       0.98408712 </v>
    <v>       0.61609758       0.72176835       0.98094797 </v>
    <v>       0.31357936       0.26166254       0.48340420 </v>
    <v>       0.41850904       0.42120219       0.98203913 </v>
    <v>       0.41709487       0.91767343       0.98303656 </v>
   </varray>
  </structure>
  <varray name="forces" >
   <v>      -0.00961130      -0.00392410       0.00233636 </v>
   <v>       0.00323895       0.00151861       0.00011285 </v>
   <v>       0.01175807       0.00879768       0.00044084 </v>
   <v>       0.01247341      -0.00017009       0.00400547 </v>
   <v>      -0.00311769      -0.01168948       0.00270628 </v>
   <v>      -0.00558307      -0.00801020      -0.00310365 </v>
   <v>      -0.00406409       0.00501505      -0.00433167 </v>
   <v>       0.00237241      -0.00774856       0.00290843 </v>
   <v>       0.00300607       0.01224735      -0.00493437 </v>
   <v>      -0.01006100      -0.00148137       0.00375040 </v>
   <v>      -0.00143005      -0.01220524      -0.00338355 </v>
   <v>      -0.01329102       0.00474074       0.00350844 </v>
   <v>       0.00207686      -0.00225264       0.00124486 </v>
   <v>       0.00225566      -0.00542360      -0.00082504 </v>
   <v>      -0.00101897      -0.00044504      -0.00465578 </v>
   <v>      -0.00195256       0.00939741      -0.00239493 </v>
   <v>       0.01977288       0.00542988       0.00321288 </v>
   <v>      -0.00843228      -0.00171581      -0.00216619 </v>
   <v>       0.00218646       0.00677358       0.00233013 </v>
   <v>      -0.00057873       0.00114583      -0.00076174 </v>
  </varray>
  <varray name="stress" >
   <v>       1.19100543      -1.72483235      -0.02564170 </v>
   <v>      -1.72483224      -0.83917330      -0.07837965 </v>
   <v>      -0.02564168      -0.07837982      -0.59569595 </v>
  </varray>
  <energy>
   <i name="e_fr_energy">   -178.69778966 </i>
   <i name="e_wo_entrp">   -178.64481775 </i>
   <i name="e_0_energy">     -0.10594382 </i>
  </energy>
  <time name="totalsc">   25.19   32.07</time>
 </calculation>
 <calculation>
  <scstep>
   <time name="dav">    1.61    1.62</time>
   <time name="total">    1.74    1.74</time>
   <energy>
    <i name="alphaZ">    567.88172127 </i>
    <i name="ewald">  -5344.19563446 </i>
    <i name="hartreedc">   -632.52195355 </i>
    <i name="XCdc">   -767.99339771 </i>
    <i name="pawpsdc">   7772.09962409 </i>
    <i name="pawaedc">  -6970.08055609 </i>
    <i name="eentropy">     -0.10678433 </i>
    <i name="bandstr">    508.73229521 </i>
    <i name="atom">   4687.48422623 </i>
[...]
       <r>    7.2980    0.0000 </r>
       <r>    7.4477    0.0000 </r>
       <r>    7.4859    0.0000 </r>
       <r>    7.5974    0.0000 </r>
       <r>    7.7162    0.0000 </r>
       <r>    7.7570    0.0000 </r>
       <r>    7.7643    0.0000 </r>
       <r>    7.8139    0.0000 </r>
      </set>
      <set comment="kpoint 8">
       <r>    1.5567    1.0000 </r>
       <r>    1.7982    1.0000 </r>
       <r>    2.2063    1.0000 </r>
       <r>    2.2587    1.0000 </r>
       <r>    2.8777    1.0000 </r>
       <r>    2.9825    1.0000 </r>
       <r>    3.2637    1.0000 </r>
       <r>    3.4189    1.0000 </r>
       <r>    3.4764    1.0000 </r>
       <r>    3.5628    1.0000 </r>
       <r>    3.6163    1.0000 </r>
       <r>    3.6327    1.0000 </r>
       <r>    3.7874    1.0000 </r>
       <r>    3.8094    1.0000 </r>
       <r>    3.8382    1.0000 </r>
       <r>    3.8687    1.0000 </r>
       <r>    3.8701    1.0000 </r>
       <r>    3.9382    1.0000 </r>
       <r>    3.9907    1.0000 </r>
       <r>    4.0385    1.0000 </r>
       <r>    4.0765    1.0000 </r>
       <r>    4.1162    1.0000 </r>
       <r>    4.7145    1.0000 </r>
       <r>    4.7600    1.0000 </r>
       <r>    4.8253    1.0000 </r>
       <r>    4.9272    1.0000 </r>
       <r>    4.9832    1.0000 </r>
       <r>    5.0455    1.0000 </r>
       <r>    5.1126    1.0000 </r>
       <r>    5.1482    1.0000 </r>
       <r>    5.2093    1.0000 </r>
       <r>    5.2878    1.0000 </r>
       <r>    5.3388    1.0000 </r>
       <r>    5.3937    1.0000 </r>
       <r>    5.4593    1.0000 </r>
       <r>    5.4827    1.0000 </r>
       <r>    5.5142    1.0000 </r>
       <r>    5.5598    1.0000 </r>
       <r>    5.6037    1.0000 </r>
       <r>    5.6284    1.0000 </r>
       <r>    5.7113    1.0000 </r>
       <r>    5.8359    1.0000 </r>
       <r>    5.8982    1.0000 </r>
       <r>    5.9306    1.0000 </r>
       <r>    5.9933    1.0000 </r>
       <r>    6.0459    1.0000 </r>
       <r>    6.0605    1.0000 </r>
       <r>    6.1254    1.0000 </r>
       <r>    6.1881    1.0000 </r>
       <r>    6.2332    1.0000 </r>
       <r>    6.3148    0.9994 </r>
       <r>    6.3776    0.9905 </r>
       <r>    6.4077    0.9725 </r>
       <r>    6.4891    0.7787 </r>
       <r>    6.5501    0.4619 </r>
       <r>    6.6569    0.0541 </r>
       <r>    6.7178    0.0068 </r>
       <r>    6.7392    0.0028 </r>
       <r>    6.8397    0.0000 </r>
       <r>    6.9844    0.0000 </r>
       <r>    7.0275    0.0000 </r>
       <r>    7.0929    0.0000 </r>
       <r>    7.3076    0.0000 </r>
       <r>    7.4448    0.0000 </r>
       <r>    7.4736    0.0000 </r>
       <r>    7.5197    0.0000 </r>
       <r>    7.6198    0.0000 </r>
       <r>    7.6730    0.0000 </r>
      </set>
     </set>
    </set>
   </array>
  </eigenvalues>
  <separator name="orbital magnetization" >
   <v name="MAGDIPOLOUT">      0.00000000      0.00000000      0.00000000</v>
  </separator>
  <dos>
   <i name="efermi">      6.54337157 </i>
   <total>
    <array>
     <dimension dim="1">gridpoints</dimension>
     <dimension dim="2">spin</dimension>
     <field>energy</field>
     <field>total</field>
     <field>integrated</field>
     <set>
      <set comment="spin 1">
       <r>    -1.4230     0.0000     0.0000 </r>
       <r>    -1.3882     0.0000     0.0000 </r>
       <r>    -1.3535     0.0000     0.0000 </r>
       <r>    -1.3187     0.0000     0.0000 </r>
       <r>    -1.2840     0.0000     0.0000 </r>
       <r>    -1.2493     0.0000     0.0000 </r>
       <r>    -1.2145     0.0000     0.0000 </r>
       <r>    -1.1798     0.0000     0.0000 </r>
       <r>    -1.1451     0.0000     0.0000 </r>
       <r>    -1.1103     0.0000     0.0000 </r>
       <r>    -1.0756     0.0000     0.0000 </r>
       <r>    -1.0408     0.0000     0.0000 </r>
       <r>    -1.0061     0.0000     0.0000 </r>
       <r>    -0.9714     0.0000     0.0000 </r>
       <r>    -0.9366     0.0000     0.0000 </r>
       <r>    -0.9019     0.0000     0.0000 </r>
       <r>    -0.8671     0.0000     0.0000 </r>
       <r>    -0.8324     0.0000     0.0000 </r>
       <r>    -0.7977     0.0000     0.0000 </r>
       <r>    -0.7629     0.0000     0.0000 </r>
       <r>    -0.7282     0.0000     0.0000 </r>
       <r>    -0.6934     0.0003     0.0000 </r>
       <r>    -0.6587     0.0017     0.0001 </r>
       <r>    -0.6240     0.0087     0.0004 </r>
       <r>    -0.5892     0.0341     0.0016 </r>
       <r>    -0.5545     0.1060     0.0052 </r>
       <r>    -0.5198     0.2595     0.0143 </r>
       <r>    -0.4850     0.5017     0.0317 </r>
       <r>    -0.4503     0.7655     0.0583 </r>
       <r>    -0.4155     0.9220     0.0903 </r>
       <r>    -0.3808     0.8765     0.1208 </r>
       <r>    -0.3461     0.6578     0.1436 </r>
       <r>    -0.3113     0.3897     0.1571 </r>
       <r>    -0.2766     0.1829     0.1635 </r>
       <r>    -0.2418     0.0717     0.1660 </r>
       <r>    -0.2071     0.0390     0.1673 </r>
       <r>    -0.1724     0.0714     0.1698 </r>
       <r>    -0.1376     0.1823     0.1762 </r>
       <r>    -0.1029     0.3893     0.1897 </r>
       <r>    -0.0681     0.6605     0.2126 </r>
       <r>    -0.0334     0.8931     0.2436 </r>
       <r>     0.0013     0.9829     0.2778 </r>
       <r>     0.0361     0.9345     0.3103 </r>
       <r>     0.0708     0.8700     0.3405 </r>
       <r>     0.1055     0.8937     0.3715 </r>
       <r>     0.1403     0.9687     0.4052 </r>
       <r>     0.1750     0.9611     0.4386 </r>
       <r>     0.2098     0.7952     0.4662 </r>
       <r>     0.2445     0.5301     0.4846 </r>
       <r>     0.2792     0.2877     0.4946 </r>
       <r>     0.3140     0.1518     0.4999 </r>
       <r>     0.3487     0.1482     0.5050 </r>
       <r>     0.3835     0.2775     0.5147 </r>
       <r>     0.4182     0.5178     0.5327 </r>
       <r>     0.4529     0.7952     0.5603 </r>
       <r>     0.4877     1.0080     0.5953 </r>
       <r>     0.5224     1.1367     0.6348 </r>
       <r>     0.5572     1.3157     0.6805 </r>
       <r>     0.5919     1.7126     0.7400 </r>
       <r>     0.6266     2.2884     0.8195 </r>
       <r>     0.6614     2.7292     0.9143 </r>
       <r>     0.6961     2.7021     1.0082 </r>
       <r>     0.7308     2.1889     1.0842 </r>
       <r>     0.7656     1.5231     1.1371 </r>
       <r>     0.8003     1.1169     1.1759 </r>
       <r>     0.8351     1.1880     1.2172 </r>
       <r>     0.8698     1.6891     1.2759 </r>
       <r>     0.9045     2.3840     1.3587 </r>
       <r>     0.9393     2.9653     1.4617 </r>
       <r>     0.9740     3.1754     1.5720 </r>
       <r>     1.0088     2.9249     1.6736 </r>
       <r>     1.0435     2.3719     1.7560 </r>
       <r>     1.0782     1.8664     1.8208 </r>
       <r>     1.1130     1.7251     1.8808 </r>
       <r>     1.1477     1.9871     1.9498 </r>
       <r>     1.1825     2.3855     2.0327 </r>
       <r>     1.2172     2.5819     2.1223 </r>
       <r>     1.2519     2.4552     2.2076 </r>
       <r>     1.2867     2.1946     2.2839 </r>
       <r>     1.3214     2.1453     2.3584 </r>
       <r>     1.3561     2.5396     2.4466 </r>
       <r>     1.3909     3.3107     2.5616 </r>
       <r>     1.4256     4.1326     2.7052 </r>
       <r>     1.4604     4.6589     2.8670 </r>
       <r>     1.4951     4.7405     3.0317 </r>
       <r>     1.5298     4.4419     3.1860 </r>
       <r>     1.5646     3.9074     3.3218 </r>
       <r>     1.5993     3.2596     3.4350 </r>
       <r>     1.6341     2.6014     3.5254 </r>
       <r>     1.6688     2.0554     3.5968 </r>
       <r>     1.7035     1.7703     3.6583 </r>
       <r>     1.7383     1.8595     3.7229 </r>
       <r>     1.7730     2.2968     3.8027 </r>
       <r>     1.8078     2.8842     3.9028 </r>
       <r>     1.8425     3.3711     4.0200 </r>
       <r>     1.8772     3.6124     4.1454 </r>
       <r>     1.9120     3.6191     4.2712 </r>
       <r>     1.9467     3.4922     4.3925 </r>
       <r>     1.9814     3.3094     4.5074 </r>
       <r>     2.0162     3.0500     4.6134 </r>
       <r>     2.0509     2.6745     4.7063 </r>
       <r>     2.0857     2.3217     4.7870 </r>
       <r>     2.1204     2.3742     4.8694 </r>
       <r>     2.1551     3.2099     4.9810 </r>
       <r>     2.1899     4.7826     5.1471 </r>
       <r>     2.2246     6.4190     5.3701 </r>
       <r>     2.2594     7.1543     5.6186 </r>
       <r>     2.2941     6.4622     5.8431 </r>
       <r>     2.3288     4.6934     6.0061 </r>
       <r>     2.3636     2.7416     6.1014 </r>
       <r>     2.3983     1.3347     6.1478 </r>
       <r>     2.4331     0.7026     6.1722 </r>
       <r>     2.4678     0.7639     6.1987 </r>
       <r>     2.5025     1.3982     6.2473 </r>
       <r>     2.5373     2.4986     6.3341 </r>
       <r>     2.5720     3.8722     6.4686 </r>
       <r>     2.6067     5.1730     6.6483 </r>
       <r>     2.6415     5.9661     6.8555 </r>
       <r>     2.6762     5.9486     7.0622 </r>
       <r>     2.7110     5.2168     7.2434 </r>
       <r>     2.7457     4.3248     7.3937 </r>
       <r>     2.7804     4.0103     7.5330 </r>
       <r>     2.8152     4.7693     7.6986 </r>
       <r>     2.8499     6.5739     7.9270 </r>
       <r>     2.8847     8.9211     8.2369 </r>
       <r>     2.9194    11.1761     8.6252 </r>
       <r>     2.9541    12.9358     9.0746 </r>
       <r>     2.9889    14.1495     9.5661 </r>
       <r>     3.0236    14.9897    10.0868 </r>
       <r>     3.0584    15.6251    10.6296 </r>
       <r>     3.0931    16.0790    11.1882 </r>
       <r>     3.1278    16.3044    11.7546 </r>
       <r>     3.1626    16.3950    12.3241 </r>
       <r>     3.1973    16.6260    12.9017 </r>
       <r>     3.2320    17.1241    13.4966 </r>
       <r>     3.2668    17.5327    14.1056 </r>
       <r>     3.3015    17.3186    14.7073 </r>
       <r>     3.3363    16.5603    15.2825 </r>
       <r>     3.3710    16.1524    15.8437 </r>
       <r>     3.4057    17.0026    16.4343 </r>
       <r>     3.4405    19.1554    17.0997 </r>
       <r>     3.4752    21.7994    17.8570 </r>
       <r>     3.5100    23.9840    18.6902 </r>
       <r>     3.5447    25.2244    19.5665 </r>
       <r>     3.5794    25.5303    20.4534 </r>
       <r>     3.6142    25.1235    21.3261 </r>
       <r>     3.6489    24.3962    22.1736 </r>
       <r>     3.6837    24.0913    23.0105 </r>
       <r>     3.7184    25.0813    23.8818 </r>
       <r>     3.7531    27.5993    24.8406 </r>
       <r>     3.7879    30.7635    25.9093 </r>
       <r>     3.8226    33.1330    27.0603 </r>
       <r>     3.8573    33.8218    28.2352 </r>
       <r>     3.8921    33.0773    29.3843 </r>
       <r>     3.9268    31.9462    30.4941 </r>
       <r>     3.9616    31.4957    31.5882 </r>
       <r>     3.9963    32.1510    32.7051 </r>
       <r>     4.0310    33.4832    33.8683 </r>
       <r>     4.0658    34.5200    35.0674 </r>
       <r>     4.1005    34.3028    36.2591 </r>
       <r>     4.1353    32.3388    37.3825 </r>
       <r>     4.1700    28.8050    38.3832 </r>
       <r>     4.2047    24.4622    39.2329 </r>
       <r>     4.2395    20.3232    39.9389 </r>
       <r>     4.2742    17.2752    40.5391 </r>
       <r>     4.3090    15.7812    41.0873 </r>
       <r>     4.3437    15.6131    41.6297 </r>
       <r>     4.3784    15.7853    42.1780 </r>
       <r>     4.4132    15.1093    42.7029 </r>
       <r>     4.4479    13.2645    43.1637 </r>
       <r>     4.4826    11.3849    43.5592 </r>
       <r>     4.5174    11.3442    43.9533 </r>
       <r>     4.5521    14.2568    44.4486 </r>
       <r>     4.5869    19.5325    45.1271 </r>
       <r>     4.6216    25.2573    46.0045 </r>
       <r>     4.6563    29.5020    47.0294 </r>
       <r>     4.6911    31.4640    48.1224 </r>
       <r>     4.7258    31.6902    49.2233 </r>
       <r>     4.7606    31.4658    50.3164 </r>
       <r>     4.7953    31.8391    51.4224 </r>
       <r>     4.8300    32.9000    52.5653 </r>
       <r>     4.8648    33.9907    53.7461 </r>
       <r>     4.8995    34.6217    54.9489 </r>
       <r>     4.9343    34.8671    56.1601 </r>
       <r>     4.9690    34.8242    57.3699 </r>
       <r>     5.0037    34.1633    58.5567 </r>
       <r>     5.0385    32.5148    59.6862 </r>
       <r>     5.0732    30.1514    60.7336 </r>
       <r>     5.1079    28.0612    61.7084 </r>
       <r>     5.1427    27.2317    62.6544 </r>
       <r>     5.1774    27.8431    63.6217 </r>
       <r>     5.2122    29.2332    64.6372 </r>
       <r>     5.2469    30.6557    65.7021 </r>
       <r>     5.2816    31.8938    66.8101 </r>
       <r>     5.3164    33.0779    67.9592 </r>
       <r>     5.3511    34.2519    69.1491 </r>
       <r>     5.3859    35.4087    70.3791 </r>
       <r>     5.4206    36.6721    71.6531 </r>
       <r>     5.4553    38.0338    72.9743 </r>
       <r>     5.4901    39.0069    74.3294 </r>
       <r>     5.5248    38.8758    75.6799 </r>
       <r>     5.5596    37.3668    76.9780 </r>
       <r>     5.5943    34.9661    78.1926 </r>
       <r>     5.6290    32.5708    79.3241 </r>
       <r>     5.6638    30.9382    80.3989 </r>
       <r>     5.6985    30.4758    81.4576 </r>
       <r>     5.7332    31.2869    82.5444 </r>
       <r>     5.7680    33.0852    83.6938 </r>
       <r>     5.8027    35.0931    84.9129 </r>
       <r>     5.8375    36.3536    86.1758 </r>
       <r>     5.8722    36.3491    87.4385 </r>
       <r>     5.9069    35.3385    88.6661 </r>
       <r>     5.9417    34.1313    89.8518 </r>
       <r>     5.9764    33.5373    91.0168 </r>
       <r>     6.0112    33.9414    92.1959 </r>
       <r>     6.0459    35.2797    93.4215 </r>
       <r>     6.0806    37.1921    94.7135 </r>
       <r>     6.1154    39.0139    96.0688 </r>
       <r>     6.1501    39.8558    97.4534 </r>
       <r>     6.1849    39.1263    98.8126 </r>
       <r>     6.2196    37.0431   100.0994 </r>
       <r>     6.2543    34.4471   101.2961 </r>
       <r>     6.2891    32.1358   102.4124 </r>
       <r>     6.3238    30.4329   103.4696 </r>
       <r>     6.3585    29.1724   104.4830 </r>
       <r>     6.3933    27.9007   105.4523 </r>
       <r>     6.4280    26.2733   106.3650 </r>
       <r>     6.4628    24.4222   107.2134 </r>
       <r>     6.4975    22.8166   108.0060 </r>
       <r>     6.5322    21.7683   108.7622 </r>
       <r>     6.5670    21.2640   109.5009 </r>
       <r>     6.6017    21.1118   110.2343 </r>
       <r>     6.6365    20.9001   110.9604 </r>
       <r>     6.6712    19.9914   111.6548 </r>
       <r>     6.7059    18.0124   112.2806 </r>
       <r>     6.7407    15.3709   112.8145 </r>
       <r>     6.7754    13.0422   113.2676 </r>
       <r>     6.8102    11.8143   113.6780 </r>
       <r>     6.8449    11.7996   114.0879 </r>
       <r>     6.8796    12.6156   114.5262 </r>
       <r>     6.9144    13.9103   115.0094 </r>
       <r>     6.9491    15.5541   115.5497 </r>
       <r>     6.9838    17.2813   116.1501 </r>
       <r>     7.0186    18.4273   116.7902 </r>
       <r>     7.0533    18.3674   117.4283 </r>
       <r>     7.0881    17.1893   118.0254 </r>
       <r>     7.1228    15.7509   118.5726 </r>
       <r>     7.1575    15.1029   119.0972 </r>
       <r>     7.1923    15.8501   119.6479 </r>
       <r>     7.2270    17.8301   120.2673 </r>
       <r>     7.2618    20.2226   120.9698 </r>
       <r>     7.2965    22.1015   121.7375 </r>
       <r>     7.3312    23.1415   122.5415 </r>
       <r>     7.3660    23.8693   123.3706 </r>
       <r>     7.4007    25.0959   124.2425 </r>
       <r>     7.4355    26.9828   125.1798 </r>
       <r>     7.4702    28.7074   126.1771 </r>
       <r>     7.5049    29.1782   127.1907 </r>
       <r>     7.5397    28.0932   128.1666 </r>
       <r>     7.5744    26.1739   129.0759 </r>
       <r>     7.6091    24.3858   129.9230 </r>
       <r>     7.6439    23.1568   130.7274 </r>
       <r>     7.6786    22.3677   131.5045 </r>
       <r>     7.7134    21.7308   132.2594 </r>
       <r>     7.7481    20.9124   132.9859 </r>
       <r>     7.7828    19.5115   133.6637 </r>
       <r>     7.8176    17.2668   134.2635 </r>
       <r>     7.8523    14.3118   134.7607 </r>
       <r>     7.8871    11.1164   135.1468 </r>
       <r>     7.9218     8.1950   135.4315 </r>
       <r>     7.9565     5.8599   135.6351 </r>
       <r>     7.9913     4.1331   135.7787 </r>
       <r>     8.0260     2.8378   135.8773 </r>
       <r>     8.0608     1.8070   135.9400 </r>
       <r>     8.0955     1.0070   135.9750 </r>
       <r>     8.1302     0.4698   135.9913 </r>
       <r>     8.1650     0.1786   135.9975 </r>
       <r>     8.1997     0.0545   135.9994 </r>
       <r>     8.2344     0.0133   135.9999 </r>
       <r>     8.2692     0.0026   136.0000 </r>
       <r>     8.3039     0.0004   136.0000 </r>
       <r>     8.3387     0.0000   136.0000 </r>
       <r>     8.3734     0.0000   136.0000 </r>
       <r>     8.4081     0.0000   136.0000 </r>
       <r>     8.4429     0.0000   136.0000 </r>
       <r>     8.4776     0.0000   136.0000 </r>
       <r>     8.5124     0.0000   136.0000 </r>
       <r>     8.5471     0.0000   136.0000 </r>
       <r>     8.5818     0.0000   136.0000 </r>
       <r>     8.6166     0.0000   136.0000 </r>
       <r>     8.6513     0.0000   136.0000 </r>
       <r>     8.6861     0.0000   136.0000 </r>
       <r>     8.7208     0.0000   136.0000 </r>
       <r>     8.7555     0.0000   136.0000 </r>
       <r>     8.7903     0.0000   136.0000 </r>
       <r>     8.8250     0.0000   136.0000 </r>
       <r>     8.8597     0.0000   136.0000 </r>
       <r>     8.8945     0.0000   136.0000 </r>
       <r>     8.9292     0.0000   136.0000 </r>
       <r>     8.9640     0.0000   136.0000 </r>
       <r>     8.9987     0.0000   136.0000 </r>
      </set>
     </set>
    </array>
   </total>
  </dos>
 </calculation>
 <structure name="finalpos" >
  <crystal>
   <varray name="basis" >
    <v>       6.30709459      -0.04097801       0.00011484 </v>
    <v>      -1.82703191       9.59060199      -0.00297744 </v>
    <v>       0.00058606      -0.00369696       4.17137752 </v>
   </varray>
   <i name="volume">    252.00938956 </i>
   <varray name="rec_basis" >
    <v>       0.15874810       0.03024188       0.00000450 </v>
    <v>       0.00067829       0.10439799       0.00009243 </v>
    <v>      -0.00000389       0.00007368       0.23972903 </v>
   </varray>
  </crystal>
  <varray name="positions" >
   <v>       0.32355692       0.76814989       0.48150923 </v>
   <v>       0.72095916       0.86875682       0.48248341 </v>
   <v>       0.70543943       0.36235909       0.48251214 </v>
   <v>       0.91874394       0.66648225       0.48087030 </v>
   <v>       0.12016988       0.46117628       0.48151297 </v>
   <v>       0.11490762       0.96579629       0.48355156 </v>
   <v>       0.92053605       0.16861163       0.48430153 </v>
   <v>       0.51134273       0.56138168       0.48100472 </v>
   <v>       0.51133744       0.06594886       0.48405189 </v>
   <v>       0.21985929       0.61351694       0.98097015 </v>
   <v>       0.22257878       0.12165853       0.98424224 </v>
   <v>       0.81079902       0.51489761       0.98101481 </v>
   <v>       0.02790011       0.81917301       0.98190067 </v>
   <v>       0.02297626       0.32001406       0.98309264 </v>
   <v>       0.81075694       0.01775802       0.98397819 </v>
   <v>       0.61217062       0.22270640       0.98393648 </v>
   <v>       0.61650549       0.72177477       0.98113743 </v>
   <v>       0.31329851       0.26164724       0.48329479 </v>
   <v>       0.41866362       0.42127328       0.98216151 </v>
   <v>       0.41713017       0.91772035       0.98298335 </v>
  </varray>
 </structure>
</modeling>
