unknown system                          
           1
     6.363238    0.000000    0.000000
    -1.780582    9.576264    0.000000
     0.000497   -0.002395    4.251540
   V    Fe
  17   3
Direct configuration=     1
   0.32376100  0.76828900  0.48121600
   0.72093100  0.86875600  0.48248000
   0.70520700  0.36235800  0.48248000
   0.91859300  0.66649600  0.48043700
   0.12021400  0.46115800  0.48123700
   0.11499000  0.96586000  0.48388700
   0.92059200  0.16859300  0.48484900
   0.51130300  0.56141600  0.48063300
   0.51136200  0.06591000  0.48452000
   0.21997900  0.61348600  0.98058800
   0.22265600  0.12166100  0.98473200
   0.81086700  0.51475400  0.98065100
   0.02781500  0.81920200  0.98176800
   0.02309600  0.32011900  0.98320700
   0.81083700  0.01771300  0.98446900
   0.61209200  0.22270300  0.98431500
   0.61620700  0.72180700  0.98074300
   0.31335600  0.26150800  0.48336500
   0.41861500  0.42122800  0.98186800
   0.41715900  0.91778600  0.98306500
unknown system                          
           1
     6.217473   -0.005543    0.000202
    -1.748135    9.421533   -0.000660
     0.000623   -0.002624    4.143862
   V    Fe
  17   3
Direct configuration=     2
   0.32382743  0.76829230  0.48125905
   0.72118376  0.86878128  0.48248468
   0.70506256  0.36209329  0.48248138
   0.91850063  0.66652960  0.48049604
   0.12029662  0.46124133  0.48127513
   0.11483061  0.96588820  0.48384558
   0.92069298  0.16853717  0.48475462
   0.51118257  0.56148922  0.48068687
   0.51127214  0.06587778  0.48448407
   0.22020670  0.61333174  0.98062967
   0.22273828  0.12183092  0.98465169
   0.81100472  0.51469124  0.98069180
   0.02784989  0.81930413  0.98178359
   0.02297751  0.32025383  0.98319322
   0.81080612  0.01769637  0.98440989
   0.61215942  0.22274197  0.98423442
   0.61574682  0.72177202  0.98080465
   0.31338857  0.26140794  0.48337354
   0.41870678  0.42132939  0.98192190
   0.41719791  0.91771327  0.98304820
unknown system                          
           1
     6.299596   -0.002420    0.000088
    -1.766415    9.508708   -0.000288
     0.000552   -0.002495    4.204527
   V    Fe
  17   3
Direct configuration=     3
   0.32378912  0.76829039  0.48123417
   0.72103800  0.86876672  0.48248198
   0.70514577  0.36224493  0.48248060
   0.91855391  0.66651039  0.48046191
   0.12024900  0.46119358  0.48125308
   0.11492254  0.96587210  0.48386952
   0.92063472  0.16856911  0.48480918
   0.51125205  0.56144733  0.48065572
   0.51132395  0.06589626  0.48450484
   0.22007533  0.61342000  0.98060560
   0.22269088  0.12173359  0.98469810
   0.81092528  0.51472713  0.98066823
   0.02782980  0.81924563  0.98177457
   0.02304589  0.32017666  0.98320117
   0.81082392  0.01770591  0.98444406
   0.61212055  0.22271963  0.98428100
   0.61601219  0.72179221  0.98076900
   0.31336975  0.26146523  0.48336862
   0.41865389  0.42127130  0.98189074
   0.41717545  0.91775490  0.98305792
unknown system                          
           1
     6.296251   -0.009273    0.000228
    -1.775809    9.543603   -0.000778
     0.000648   -0.002704    4.193453
   V    Fe
  17   3
Direct configuration=     4
   0.32384423  0.76827478  0.48128100
   0.72095175  0.86876008  0.48248014
   0.70503496  0.36218232  0.48248053
   0.91844192  0.66649602  0.48051904
   0.12030042  0.46129555  0.48128647
   0.11502318  0.96593166  0.48382459
   0.92065052  0.16854294  0.48472071
   0.51125393  0.56149618  0.48071702
   0.51125948  0.06578734  0.48445095
   0.22015003  0.61347501  0.98065243
   0.22272105  0.12183948  0.98460994
   0.81105154  0.51473866  0.98071306
   0.02783021  0.81924556  0.98179124
   0.02303222  0.32017475  0.98318119
   0.81081807  0.01773063  0.98437853
   0.61213003  0.22260804  0.98420981
   0.61589257  0.72172807  0.98082901
   0.31349021  0.26155881  0.48339392
   0.41859210  0.42120950  0.98194002
   0.41716357  0.91772762  0.98305039
unknown system                          
           1
     6.292601   -0.016751    0.000380
    -1.786058    9.581680   -0.001313
     0.000752   -0.002932    4.181369
   V    Fe
  17   3
Direct configuration=     5
   0.32390440  0.76825786  0.48133223
   0.72085756  0.86875279  0.48247812
   0.70491394  0.36211417  0.48248045
   0.91831963  0.66648031  0.48058155
   0.12035663  0.46140644  0.48132300
   0.11513311  0.96599647  0.48377545
   0.92066776  0.16851450  0.48462393
   0.51125601  0.56154930  0.48078409
   0.51118903  0.06566887  0.48439198
   0.22023161  0.61353488  0.98070367
   0.22275404  0.12195461  0.98451351
   0.81118942  0.51475130  0.98076211
   0.02783065  0.81924548  0.98180948
   0.02301730  0.32017267  0.98315934
   0.81081169  0.01775751  0.98430684
   0.61214033  0.22248673  0.98413193
   0.61576191  0.72165826  0.98089465
   0.31362179  0.26166063  0.48342161
   0.41852460  0.42114226  0.98199392
   0.41715060  0.91769795  0.98304215
unknown system                          
           1
     6.292867   -0.016207    0.000369
    -1.785311    9.578906   -0.001274
     0.000745   -0.002916    4.182250
   V    Fe
  17   3
Direct configuration=     6
   0.32390002  0.76825909  0.48132848
   0.72086443  0.86875332  0.48247827
   0.70492277  0.36211912  0.48248046
   0.91832855  0.66648145  0.48057698
   0.12035252  0.46139839  0.48132033
   0.11512509  0.96599176  0.48377904
   0.92066650  0.16851657  0.48463100
   0.51125585  0.56154544  0.48077919
   0.51119417  0.06567747  0.48439629
   0.22022566  0.61353053  0.98069993
   0.22275163  0.12194626  0.98452056
   0.81117936  0.51475038  0.98075852
   0.02783062  0.81924549  0.98180815
   0.02301839  0.32017282  0.98316094
   0.81081215  0.01775556  0.98431207
   0.61213959  0.22249553  0.98413762
   0.61577144  0.72166333  0.98088985
   0.31361219  0.26165323  0.48341959
   0.41852953  0.42114715  0.98198998
   0.41715154  0.91770011  0.98304275
unknown system                          
           1
     6.297024   -0.025833    0.000248
    -1.801136    9.582186   -0.001744
     0.000669   -0.003137    4.179679
   V    Fe
  17   3
Direct configuration=     7
   0.32382352  0.76828103  0.48136851
   0.72096055  0.86871782  0.48248329
   0.70498809  0.36217025  0.48248369
   0.91836831  0.66651580  0.48064282
   0.12026325  0.46130987  0.48136133
   0.11501339  0.96599598  0.48372375
   0.92066359  0.16855834  0.48454568
   0.51132407  0.56147368  0.48083064
   0.51121221  0.06570358  0.48430976
   0.22005257  0.61349955  0.98076727
   0.22268938  0.12184803  0.98446042
   0.81103120  0.51469387  0.98082092
   0.02779684  0.81926912  0.98182481
   0.02308167  0.32017154  0.98314117
   0.81085349  0.01773100  0.98423095
   0.61222903  0.22255700  0.98408712
   0.61609758  0.72176835  0.98094797
   0.31357936  0.26166254  0.48340420
   0.41850904  0.42120219  0.98203913
   0.41709487  0.91767343  0.98303656
unknown system                          
           1
     6.302301   -0.038052    0.000095
    -1.821221    9.586350   -0.002340
     0.000572   -0.003419    4.176417
   V    Fe
  17   3
Direct configuration=     8
   0.32372653  0.76830877  0.48141934
   0.72108239  0.86867289  0.48248966
   0.70507113  0.36223522  0.48248781
   0.91841887  0.66655944  0.48072643
   0.12014972  0.46119745  0.48141339
   0.11487168  0.96600118  0.48365354
   0.92066003  0.16861133  0.48443733
   0.51141040  0.56138272  0.48089597
   0.51123518  0.06573674  0.48419988
   0.21983286  0.61346003  0.98085279
   0.22261009  0.12172332  0.98438402
   0.81084304  0.51462200  0.98090016
   0.02775405  0.81929905  0.98184598
   0.02316196  0.32017000  0.98311607
   0.81090585  0.01769990  0.98412791
   0.61234270  0.22263510  0.98402300
   0.61651168  0.72190201  0.98102181
   0.31353774  0.26167431  0.48338467
   0.41848322  0.42127201  0.98210154
   0.41702288  0.91763952  0.98302869
unknown system                          
           1
     6.304106   -0.040000    0.000120
    -1.824698    9.587620   -0.002691
     0.000589   -0.003570    4.173076
   V    Fe
  17   3
Direct configuration=     9
   0.32359157  0.76821113  0.48146326
   0.72102577  0.86872973  0.48248756
   0.70527308  0.36228530  0.48250009
   0.91860805  0.66651096  0.48079803
   0.12015659  0.46118631  0.48146395
   0.11487822  0.96589037  0.48360260
   0.92059637  0.16861726  0.48436911
   0.51136270  0.56138730  0.48094957
   0.51131702  0.06585494  0.48412466
   0.21984806  0.61350385  0.98090949
   0.22260818  0.12169501  0.98431540
   0.81078798  0.51478100  0.98095623
   0.02783220  0.81922875  0.98187230
   0.02308187  0.32007692  0.98310516
   0.81083579  0.01774222  0.98405112
   0.61223850  0.22266010  0.98398275
   0.61651948  0.72181903  0.98107817
   0.31340983  0.26166165  0.48333798
   0.41857969  0.42127981  0.98213487
   0.41708106  0.91768135  0.98300770
unknown system                          
           1
     6.304868   -0.040823    0.000130
    -1.826168    9.588156   -0.002840
     0.000596   -0.003634    4.171665
   V    Fe
  17   3
Direct configuration=    10
   0.32353453  0.76816987  0.48148184
   0.72100186  0.86875374  0.48248667
   0.70535840  0.36230648  0.48250528
   0.91868795  0.66649050  0.48082830
   0.12015950  0.46118161  0.48148533
   0.11488095  0.96584356  0.48358106
   0.92056948  0.16861977  0.48434026
   0.51134255  0.56138923  0.48097224
   0.51135162  0.06590489  0.48409286
   0.21985449  0.61352237  0.98093346
   0.22260737  0.12168305  0.98428638
   0.81076475  0.51484817  0.98097994
   0.02786520  0.81919906  0.98188343
   0.02304802  0.32003758  0.98310054
   0.81080620  0.01776009  0.98401865
   0.61219448  0.22267066  0.98396573
   0.61652276  0.72178397  0.98110200
   0.31335579  0.26165629  0.48331824
   0.41862045  0.42128311  0.98214896
   0.41710565  0.91769902  0.98299883
unknown system                          
           1
     6.308998   -0.041110    0.000102
    -1.827771    9.592693   -0.003095
     0.000577   -0.003751    4.171132
   V    Fe
  17   3
Direct configuration=    11
   0.32357604  0.76813282  0.48153265
   0.72092269  0.86875945  0.48248062
   0.70550864  0.36240405  0.48251801
   0.91879175  0.66647520  0.48090621
   0.12017874  0.46117172  0.48153660
   0.11493039  0.96575592  0.48352633
   0.92050750  0.16860467  0.48426841
   0.51134288  0.56137523  0.48103249
   0.51132534  0.06598643  0.48401686
   0.21986338  0.61351229  0.98100152
   0.22255436  0.12163758  0.98420449
   0.81082831  0.51493986  0.98104463
   0.02792992  0.81915076  0.98191541
   0.02291498  0.31999395  0.98308588
   0.81071487  0.01775624  0.98394359
   0.61215025  0.22273693  0.98391146
   0.61649074  0.72176692  0.98116773
   0.31324960  0.26163952  0.48327473
   0.41870049  0.42126489  0.98217224
   0.41715111  0.91773856  0.98297012
unknown system                          
           1
     6.307095   -0.040978    0.000115
    -1.827032    9.590602   -0.002977
     0.000586   -0.003697    4.171378
   V    Fe
  17   3
Direct configuration=    12
   0.32355692  0.76814989  0.48150923
   0.72095916  0.86875682  0.48248341
   0.70543943  0.36235909  0.48251214
   0.91874394  0.66648225  0.48087030
   0.12016988  0.46117628  0.48151297
   0.11490762  0.96579629  0.48355156
   0.92053605  0.16861163  0.48430153
   0.51134273  0.56138168  0.48100472
   0.51133744  0.06594886  0.48405189
   0.21985929  0.61351694  0.98097015
   0.22257878  0.12165853  0.98424224
   0.81079902  0.51489761  0.98101481
   0.02790011  0.81917301  0.98190067
   0.02297626  0.32001406  0.98309264
   0.81075694  0.01775802  0.98397819
   0.61217062  0.22270640  0.98393648
   0.61650549  0.72177477  0.98113743
   0.31329851  0.26164724  0.48329479
   0.41866362  0.42127328  0.98216151
   0.41713017  0.91772035  0.98298335
