  20  20   0   0
  0.1295360E+02  0.8295653E-09  0.8295653E-09  0.4346991E-09  0.5000000E-15
  1.000000000000000E-004
  CAR 
 unknown system                          
      8.11769067     -1.74830048  301      6.07134230      1.00000000
     -1.748  0.0000E+00  0.0000E+00
     -1.715  0.0000E+00  0.0000E+00
     -1.683  0.0000E+00  0.0000E+00
     -1.650  0.0000E+00  0.0000E+00
     -1.617  0.0000E+00  0.0000E+00
     -1.584  0.0000E+00  0.0000E+00
     -1.551  0.0000E+00  0.0000E+00
     -1.518  0.0000E+00  0.0000E+00
     -1.485  0.0000E+00  0.0000E+00
     -1.452  0.0000E+00  0.0000E+00
     -1.419  0.0000E+00  0.0000E+00
     -1.387  0.0000E+00  0.0000E+00
     -1.354  0.0000E+00  0.0000E+00
     -1.321  0.2813E-17  0.9252E-19
     -1.288  0.1153E-15  0.3886E-17
     -1.255  0.3800E-14  0.1289E-15
     -1.222  0.1012E-12  0.3456E-14
     -1.189  0.2175E-11  0.7498E-13
     -1.156  0.3776E-10  0.1317E-11
     -1.123  0.5295E-09  0.1873E-10
     -1.091  0.5998E-08  0.2160E-09
     -1.058  0.5489E-07  0.2021E-08
     -1.025  0.4059E-06  0.1537E-07
     -0.992  0.2425E-05  0.9513E-07
     -0.959  0.1171E-04  0.4803E-06
     -0.926  0.4573E-04  0.1984E-05
     -0.893  0.1443E-03  0.6730E-05
     -0.860  0.3681E-03  0.1884E-04
     -0.827  0.7593E-03  0.4381E-04
     -0.795  0.1266E-02  0.8545E-04
     -0.762  0.1708E-02  0.1416E-03
     -0.729  0.1862E-02  0.2029E-03
     -0.696  0.1642E-02  0.2568E-03
     -0.663  0.1171E-02  0.2953E-03
     -0.630  0.6748E-03  0.3175E-03
     -0.597  0.3146E-03  0.3279E-03
     -0.564  0.1185E-03  0.3318E-03
     -0.531  0.3612E-04  0.3330E-03
     -0.499  0.8894E-05  0.3333E-03
     -0.466  0.1771E-05  0.3333E-03
     -0.433  0.2849E-06  0.3333E-03
     -0.400  0.3777E-07  0.3333E-03
     -0.367  0.1281E-07  0.3333E-03
     -0.334  0.8734E-07  0.3333E-03
     -0.301  0.6856E-06  0.3334E-03
     -0.268  0.4366E-05  0.3335E-03
     -0.236  0.2247E-04  0.3342E-03
     -0.203  0.9348E-04  0.3373E-03
     -0.170  0.3144E-03  0.3477E-03
     -0.137  0.8557E-03  0.3758E-03
     -0.104  0.1886E-02  0.4378E-03
     -0.071  0.3377E-02  0.5489E-03
     -0.038  0.4950E-02  0.7117E-03
     -0.005  0.6051E-02  0.9107E-03
      0.028  0.6450E-02  0.1123E-02
      0.060  0.6525E-02  0.1337E-02
      0.093  0.6900E-02  0.1564E-02
      0.126  0.7756E-02  0.1819E-02
      0.159  0.8579E-02  0.2101E-02
      0.192  0.8591E-02  0.2384E-02
      0.225  0.7423E-02  0.2628E-02
      0.258  0.5408E-02  0.2806E-02
      0.291  0.3279E-02  0.2914E-02
      0.324  0.1642E-02  0.2968E-02
      0.356  0.6744E-03  0.2990E-02
      0.389  0.2263E-03  0.2997E-02
      0.422  0.6186E-04  0.2999E-02
      0.455  0.1384E-04  0.3000E-02
      0.488  0.3411E-05  0.3000E-02
      0.521  0.6588E-05  0.3000E-02
      0.554  0.3343E-04  0.3001E-02
      0.587  0.1446E-03  0.3006E-02
      0.620  0.5065E-03  0.3023E-02
      0.652  0.1434E-02  0.3070E-02
      0.685  0.3283E-02  0.3178E-02
      0.718  0.6078E-02  0.3378E-02
      0.751  0.9113E-02  0.3677E-02
      0.784  0.1111E-01  0.4043E-02
      0.817  0.1116E-01  0.4410E-02
      0.850  0.9705E-02  0.4729E-02
      0.883  0.8289E-02  0.5002E-02
      0.916  0.8300E-02  0.5275E-02
      0.948  0.9727E-02  0.5595E-02
      0.981  0.1118E-01  0.5962E-02
      1.014  0.1109E-01  0.6327E-02
      1.047  0.9078E-02  0.6625E-02
      1.080  0.6039E-02  0.6824E-02
      1.113  0.3253E-02  0.6931E-02
      1.146  0.1421E-02  0.6978E-02
      1.179  0.5213E-03  0.6995E-02
      1.211  0.2348E-03  0.7003E-02
      1.244  0.3448E-03  0.7014E-02
      1.277  0.8556E-03  0.7042E-02
      1.310  0.1870E-02  0.7104E-02
      1.343  0.3326E-02  0.7213E-02
      1.376  0.4788E-02  0.7370E-02
      1.409  0.5583E-02  0.7554E-02
      1.442  0.5314E-02  0.7729E-02
      1.475  0.4255E-02  0.7869E-02
      1.507  0.3218E-02  0.7975E-02
      1.540  0.2969E-02  0.8072E-02
      1.573  0.3744E-02  0.8195E-02
      1.606  0.5139E-02  0.8364E-02
      1.639  0.6421E-02  0.8576E-02
      1.672  0.7032E-02  0.8807E-02
      1.705  0.6877E-02  0.9033E-02
      1.738  0.6158E-02  0.9236E-02
      1.771  0.5094E-02  0.9403E-02
      1.803  0.3931E-02  0.9532E-02
      1.836  0.3144E-02  0.9636E-02
      1.869  0.3439E-02  0.9749E-02
      1.902  0.5405E-02  0.9927E-02
      1.935  0.8977E-02  0.1022E-01
      1.968  0.1308E-01  0.1065E-01
      2.001  0.1606E-01  0.1118E-01
      2.034  0.1687E-01  0.1173E-01
      2.067  0.1620E-01  0.1227E-01
      2.099  0.1595E-01  0.1279E-01
      2.132  0.1758E-01  0.1337E-01
      2.165  0.2055E-01  0.1405E-01
      2.198  0.2278E-01  0.1480E-01
      2.231  0.2253E-01  0.1554E-01
      2.264  0.2009E-01  0.1620E-01
      2.297  0.1736E-01  0.1677E-01
      2.330  0.1592E-01  0.1729E-01
      2.363  0.1574E-01  0.1781E-01
      2.395  0.1584E-01  0.1833E-01
      2.428  0.1575E-01  0.1885E-01
      2.461  0.1602E-01  0.1938E-01
      2.494  0.1747E-01  0.1995E-01
      2.527  0.2054E-01  0.2063E-01
      2.560  0.2526E-01  0.2146E-01
      2.593  0.3149E-01  0.2249E-01
      2.626  0.3881E-01  0.2377E-01
      2.659  0.4643E-01  0.2529E-01
      2.691  0.5322E-01  0.2704E-01
      2.724  0.5767E-01  0.2894E-01
      2.757  0.5835E-01  0.3086E-01
      2.790  0.5498E-01  0.3267E-01
      2.823  0.4935E-01  0.3429E-01
      2.856  0.4457E-01  0.3576E-01
      2.889  0.4299E-01  0.3717E-01
      2.922  0.4481E-01  0.3864E-01
      2.954  0.4871E-01  0.4025E-01
      2.987  0.5330E-01  0.4200E-01
      3.020  0.5761E-01  0.4389E-01
      3.053  0.6052E-01  0.4588E-01
      3.086  0.6062E-01  0.4788E-01
      3.119  0.5725E-01  0.4976E-01
      3.152  0.5150E-01  0.5145E-01
      3.185  0.4585E-01  0.5296E-01
      3.218  0.4297E-01  0.5438E-01
      3.250  0.4430E-01  0.5583E-01
      3.283  0.4910E-01  0.5745E-01
      3.316  0.5450E-01  0.5924E-01
      3.349  0.5732E-01  0.6112E-01
      3.382  0.5639E-01  0.6298E-01
      3.415  0.5325E-01  0.6473E-01
      3.448  0.5090E-01  0.6640E-01
      3.481  0.5191E-01  0.6811E-01
      3.514  0.5710E-01  0.6999E-01
      3.546  0.6483E-01  0.7212E-01
      3.579  0.7145E-01  0.7447E-01
      3.612  0.7322E-01  0.7688E-01
      3.645  0.6888E-01  0.7914E-01
      3.678  0.6044E-01  0.8113E-01
      3.711  0.5172E-01  0.8283E-01
      3.744  0.4580E-01  0.8434E-01
      3.777  0.4344E-01  0.8577E-01
      3.810  0.4343E-01  0.8720E-01
      3.842  0.4438E-01  0.8866E-01
      3.875  0.4602E-01  0.9017E-01
      3.908  0.4875E-01  0.9177E-01
      3.941  0.5251E-01  0.9350E-01
      3.974  0.5677E-01  0.9537E-01
      4.007  0.6101E-01  0.9737E-01
      4.040  0.6452E-01  0.9949E-01
      4.073  0.6623E-01  0.1017E+00
      4.106  0.6569E-01  0.1038E+00
      4.138  0.6406E-01  0.1059E+00
      4.171  0.6316E-01  0.1080E+00
      4.204  0.6329E-01  0.1101E+00
      4.237  0.6300E-01  0.1122E+00
      4.270  0.6150E-01  0.1142E+00
      4.303  0.6038E-01  0.1162E+00
      4.336  0.6202E-01  0.1182E+00
      4.369  0.6647E-01  0.1204E+00
      4.402  0.7087E-01  0.1227E+00
      4.434  0.7207E-01  0.1251E+00
      4.467  0.6943E-01  0.1274E+00
      4.500  0.6489E-01  0.1295E+00
      4.533  0.6092E-01  0.1315E+00
      4.566  0.5874E-01  0.1335E+00
      4.599  0.5810E-01  0.1354E+00
      4.632  0.5800E-01  0.1373E+00
      4.665  0.5757E-01  0.1392E+00
      4.697  0.5683E-01  0.1410E+00
      4.730  0.5650E-01  0.1429E+00
      4.763  0.5698E-01  0.1448E+00
      4.796  0.5773E-01  0.1467E+00
      4.829  0.5822E-01  0.1486E+00
      4.862  0.5911E-01  0.1505E+00
      4.895  0.6177E-01  0.1526E+00
      4.928  0.6623E-01  0.1547E+00
      4.961  0.7034E-01  0.1570E+00
      4.993  0.7117E-01  0.1594E+00
      5.026  0.6757E-01  0.1616E+00
      5.059  0.6124E-01  0.1636E+00
      5.092  0.5536E-01  0.1654E+00
      5.125  0.5232E-01  0.1672E+00
      5.158  0.5238E-01  0.1689E+00
      5.191  0.5400E-01  0.1707E+00
      5.224  0.5500E-01  0.1725E+00
      5.257  0.5384E-01  0.1742E+00
      5.289  0.5075E-01  0.1759E+00
      5.322  0.4788E-01  0.1775E+00
      5.355  0.4790E-01  0.1791E+00
      5.388  0.5168E-01  0.1808E+00
      5.421  0.5721E-01  0.1826E+00
      5.454  0.6113E-01  0.1847E+00
      5.487  0.6135E-01  0.1867E+00
      5.520  0.5840E-01  0.1886E+00
      5.553  0.5457E-01  0.1904E+00
      5.585  0.5202E-01  0.1921E+00
      5.618  0.5148E-01  0.1938E+00
      5.651  0.5198E-01  0.1955E+00
      5.684  0.5183E-01  0.1972E+00
      5.717  0.5009E-01  0.1989E+00
      5.750  0.4729E-01  0.2004E+00
      5.783  0.4523E-01  0.2019E+00
      5.816  0.4567E-01  0.2034E+00
      5.849  0.4914E-01  0.2050E+00
      5.881  0.5448E-01  0.2068E+00
      5.914  0.5972E-01  0.2088E+00
      5.947  0.6331E-01  0.2109E+00
      5.980  0.6427E-01  0.2130E+00
      6.013  0.6171E-01  0.2150E+00
      6.046  0.5508E-01  0.2168E+00
      6.079  0.4575E-01  0.2183E+00
      6.112  0.3738E-01  0.2195E+00
      6.144  0.3409E-01  0.2207E+00
      6.177  0.3759E-01  0.2219E+00
      6.210  0.4577E-01  0.2234E+00
      6.243  0.5381E-01  0.2252E+00
      6.276  0.5708E-01  0.2270E+00
      6.309  0.5408E-01  0.2288E+00
      6.342  0.4738E-01  0.2304E+00
      6.375  0.4175E-01  0.2318E+00
      6.408  0.4118E-01  0.2331E+00
      6.440  0.4644E-01  0.2346E+00
      6.473  0.5484E-01  0.2364E+00
      6.506  0.6207E-01  0.2385E+00
      6.539  0.6497E-01  0.2406E+00
      6.572  0.6317E-01  0.2427E+00
      6.605  0.5880E-01  0.2446E+00
      6.638  0.5494E-01  0.2464E+00
      6.671  0.5373E-01  0.2482E+00
      6.704  0.5524E-01  0.2500E+00
      6.736  0.5756E-01  0.2519E+00
      6.769  0.5844E-01  0.2538E+00
      6.802  0.5716E-01  0.2557E+00
      6.835  0.5482E-01  0.2575E+00
      6.868  0.5302E-01  0.2593E+00
      6.901  0.5239E-01  0.2610E+00
      6.934  0.5245E-01  0.2627E+00
      6.967  0.5231E-01  0.2644E+00
      7.000  0.5110E-01  0.2661E+00
      7.032  0.4796E-01  0.2677E+00
      7.065  0.4220E-01  0.2691E+00
      7.098  0.3393E-01  0.2702E+00
      7.131  0.2440E-01  0.2710E+00
      7.164  0.1546E-01  0.2715E+00
      7.197  0.8535E-02  0.2718E+00
      7.230  0.4071E-02  0.2719E+00
      7.263  0.1661E-02  0.2720E+00
      7.296  0.5742E-03  0.2720E+00
      7.328  0.1664E-03  0.2720E+00
      7.361  0.4005E-04  0.2720E+00
      7.394  0.7947E-05  0.2720E+00
      7.427  0.1292E-05  0.2720E+00
      7.460  0.1713E-06  0.2720E+00
      7.493  0.1848E-07  0.2720E+00
      7.526  0.1617E-08  0.2720E+00
      7.559  0.1146E-09  0.2720E+00
      7.592  0.6577E-11  0.2720E+00
      7.624  0.3051E-12  0.2720E+00
      7.657  0.1144E-13  0.2720E+00
      7.690  0.3477E-15  0.2720E+00
      7.723  0.6752E-17  0.2720E+00
      7.756  0.0000E+00  0.2720E+00
      7.789  0.0000E+00  0.2720E+00
      7.822  0.0000E+00  0.2720E+00
      7.855  0.0000E+00  0.2720E+00
      7.887  0.0000E+00  0.2720E+00
      7.920  0.0000E+00  0.2720E+00
      7.953  0.0000E+00  0.2720E+00
      7.986  0.0000E+00  0.2720E+00
      8.019  0.0000E+00  0.2720E+00
      8.052  0.0000E+00  0.2720E+00
      8.085  0.0000E+00  0.2720E+00
      8.118  0.0000E+00  0.2720E+00
