   20   20  500    1
  0.1295360E+02  0.8295653E-09  0.8295653E-09  0.4346991E-09  0.5000000E-15
  1.000000000000000E-004
  CAR 
 unknown system                          
    109      4     68
 
  0.0000000E+00  0.0000000E+00  0.0000000E+00  0.8333333E-01
    1       -0.748300   1.000000
    2        1.745134   1.000000
    3        1.745161   1.000000
    4        2.017949   1.000000
    5        2.017979   1.000000
    6        2.057157   1.000000
    7        2.319262   1.000000
    8        2.703224   1.000000
    9        2.703233   1.000000
   10        2.881669   1.000000
   11        3.084442   1.000000
   12        3.084462   1.000000
   13        3.284610   1.000000
   14        3.284621   1.000000
   15        3.325345   1.000000
   16        3.329703   1.000000
   17        3.386951   1.000000
   18        3.396629   1.000000
   19        3.396653   1.000000
   20        3.543641   1.000000
   21        3.653217   1.000000
   22        3.653218   1.000000
   23        3.828406   1.000000
   24        3.828412   1.000000
   25        3.961215   1.000000
   26        3.966446   1.000000
   27        4.208130   1.000000
   28        4.208151   1.000000
   29        4.335889   1.000000
   30        4.361114   1.000000
   31        4.361126   1.000000
   32        4.441452   1.000000
   33        4.441462   1.000000
   34        4.556955   1.000000
   35        4.631862   1.000000
   36        4.631893   1.000000
   37        4.759451   1.000000
   38        4.865647   1.000000
   39        4.961349   1.000000
   40        4.961358   1.000000
   41        5.132570   1.000000
   42        5.132581   1.000000
   43        5.166851   1.000000
   44        5.166873   1.000000
   45        5.207936   1.000000
   46        5.303152   1.000000
   47        5.356720   1.000000
   48        5.356728   1.000000
   49        5.424994   1.000000
   50        5.665620   1.000000
   51        5.790449   0.999964
   52        5.889813   0.994874
   53        5.928051   0.978640
   54        5.928061   0.978633
   55        6.138682   0.170465
   56        6.210455   0.024572
   57        6.210464   0.024564
   58        6.322918   0.000187
   59        6.322923   0.000187
   60        6.472561   0.000000
   61        6.472569   0.000000
   62        6.528785   0.000000
   63        6.650600   0.000000
   64        6.682651   0.000000
   65        6.682670   0.000000
   66        6.823910   0.000000
   67        6.823913   0.000000
   68        6.921642   0.000000
 
  0.5000000E+00 -0.3651939E-16  0.0000000E+00  0.2500000E+00
    1       -0.014987   1.000000
    2        0.190928   1.000000
    3        1.399334   1.000000
    4        1.633443   1.000000
    5        2.638243   1.000000
    6        2.653955   1.000000
    7        2.661212   1.000000
    8        2.786765   1.000000
    9        2.851566   1.000000
   10        2.914150   1.000000
   11        2.972619   1.000000
   12        2.978210   1.000000
   13        3.168165   1.000000
   14        3.202857   1.000000
   15        3.279487   1.000000
   16        3.323744   1.000000
   17        3.525250   1.000000
   18        3.583518   1.000000
   19        3.611430   1.000000
   20        3.713021   1.000000
   21        3.755659   1.000000
   22        3.798059   1.000000
   23        3.826737   1.000000
   24        3.923265   1.000000
   25        3.933627   1.000000
   26        3.991606   1.000000
   27        4.063701   1.000000
   28        4.070149   1.000000
   29        4.099449   1.000000
   30        4.232158   1.000000
   31        4.373869   1.000000
   32        4.385083   1.000000
   33        4.407547   1.000000
   34        4.506421   1.000000
   35        4.511586   1.000000
   36        4.618741   1.000000
   37        4.630638   1.000000
   38        4.684443   1.000000
   39        4.765357   1.000000
   40        4.769378   1.000000
   41        4.896436   1.000000
   42        4.962162   1.000000
   43        4.992576   1.000000
   44        5.172652   1.000000
   45        5.247276   1.000000
   46        5.456394   1.000000
   47        5.475745   1.000000
   48        5.518717   1.000000
   49        5.609383   1.000000
   50        5.637293   1.000000
   51        5.778187   0.999983
   52        5.883507   0.996051
   53        5.915774   0.986099
   54        5.995989   0.856711
   55        6.023183   0.752088
   56        6.223392   0.015766
   57        6.268409   0.002660
   58        6.437118   0.000000
   59        6.477027   0.000000
   60        6.543343   0.000000
   61        6.593635   0.000000
   62        6.748490   0.000000
   63        6.762222   0.000000
   64        6.769159   0.000000
   65        6.853274   0.000000
   66        6.974616   0.000000
   67        7.059522   0.000000
   68        7.117691   0.000000
 
  0.0000000E+00  0.0000000E+00  0.3333333E+00  0.1666667E+00
    1        0.127445   1.000000
    2        2.158739   1.000000
    3        2.181085   1.000000
    4        2.181100   1.000000
    5        2.493567   1.000000
    6        2.493581   1.000000
    7        2.536238   1.000000
    8        2.714430   1.000000
    9        2.714436   1.000000
   10        2.887229   1.000000
   11        2.979251   1.000000
   12        3.037447   1.000000
   13        3.037456   1.000000
   14        3.255635   1.000000
   15        3.331045   1.000000
   16        3.331070   1.000000
   17        3.468205   1.000000
   18        3.468217   1.000000
   19        3.540349   1.000000
   20        3.584808   1.000000
   21        3.584827   1.000000
   22        3.685756   1.000000
   23        3.904906   1.000000
   24        3.988394   1.000000
   25        3.988397   1.000000
   26        4.155230   1.000000
   27        4.182912   1.000000
   28        4.182934   1.000000
   29        4.359654   1.000000
   30        4.431298   1.000000
   31        4.431308   1.000000
   32        4.550348   1.000000
   33        4.550351   1.000000
   34        4.661848   1.000000
   35        4.763400   1.000000
   36        4.854380   1.000000
   37        4.956773   1.000000
   38        4.956778   1.000000
   39        5.031581   1.000000
   40        5.031592   1.000000
   41        5.099377   1.000000
   42        5.195581   1.000000
   43        5.283228   1.000000
   44        5.283235   1.000000
   45        5.339484   1.000000
   46        5.419962   1.000000
   47        5.419970   1.000000
   48        5.606206   1.000000
   49        5.625369   1.000000
   50        5.625380   1.000000
   51        5.739249   0.999999
   52        5.783734   0.999976
   53        5.783737   0.999976
   54        5.988515   0.879271
   55        5.988529   0.879232
   56        6.135884   0.180684
   57        6.300887   0.000585
   58        6.338833   0.000078
   59        6.338836   0.000077
   60        6.412425   0.000001
   61        6.508683   0.000000
   62        6.508690   0.000000
   63        6.573578   0.000000
   64        6.608131   0.000000
   65        6.846712   0.000000
   66        6.846737   0.000000
   67        6.916111   0.000000
   68        6.962352   0.000000
 
  0.5000000E+00 -0.3651939E-16  0.3333333E+00  0.5000000E+00
    1        0.780587   1.000000
    2        0.984251   1.000000
    3        1.986968   1.000000
    4        2.211733   1.000000
    5        2.372065   1.000000
    6        2.599131   1.000000
    7        2.721587   1.000000
    8        2.759408   1.000000
    9        2.779499   1.000000
   10        2.932928   1.000000
   11        3.041158   1.000000
   12        3.080722   1.000000
   13        3.085054   1.000000
   14        3.153623   1.000000
   15        3.314283   1.000000
   16        3.373130   1.000000
   17        3.442271   1.000000
   18        3.542964   1.000000
   19        3.590041   1.000000
   20        3.609103   1.000000
   21        3.662502   1.000000
   22        3.803805   1.000000
   23        3.920635   1.000000
   24        4.049243   1.000000
   25        4.052507   1.000000
   26        4.113199   1.000000
   27        4.208253   1.000000
   28        4.235525   1.000000
   29        4.257859   1.000000
   30        4.344667   1.000000
   31        4.410495   1.000000
   32        4.445350   1.000000
   33        4.536113   1.000000
   34        4.622649   1.000000
   35        4.697860   1.000000
   36        4.797983   1.000000
   37        4.812394   1.000000
   38        4.899283   1.000000
   39        4.953662   1.000000
   40        4.991048   1.000000
   41        5.042306   1.000000
   42        5.122650   1.000000
   43        5.214245   1.000000
   44        5.258631   1.000000
   45        5.405632   1.000000
   46        5.427632   1.000000
   47        5.492871   1.000000
   48        5.549107   1.000000
   49        5.689578   1.000000
   50        5.697315   1.000000
   51        5.860647   0.998557
   52        5.892155   0.994363
   53        5.960102   0.942161
   54        6.031274   0.714526
   55        6.038542   0.678627
   56        6.219550   0.018042
   57        6.253210   0.005056
   58        6.274691   0.002015
   59        6.475045   0.000000
   60        6.513539   0.000000
   61        6.578208   0.000000
   62        6.671682   0.000000
   63        6.721536   0.000000
   64        6.764342   0.000000
   65        6.888774   0.000000
   66        6.950941   0.000000
   67        7.020862   0.000000
   68        7.053422   0.000000
