       N       E                     dE             d eps       ncg     rms          rms(c)
DAV:   1     0.711958742062E+03    0.71196E+03   -0.23489E+04   552   0.111E+03
DAV:   2    -0.252159492943E+02   -0.73717E+03   -0.71116E+03   544   0.341E+02
DAV:   3    -0.160458548512E+03   -0.13524E+03   -0.12758E+03   952   0.158E+02
DAV:   4    -0.175425117130E+03   -0.14967E+02   -0.14205E+02   896   0.706E+01
DAV:   5    -0.176291187380E+03   -0.86607E+00   -0.80496E+00   912   0.131E+01    0.570E+01
DAV:   6    -0.174485950765E+03    0.18052E+01   -0.18496E+02   912   0.928E+01    0.388E+01
DAV:   7    -0.174922096487E+03   -0.43615E+00   -0.38482E+02  1048   0.163E+02    0.305E+01
DAV:   8    -0.167379859838E+03    0.75422E+01   -0.12010E+02  1008   0.779E+01    0.247E+01
DAV:   9    -0.159762958266E+03    0.76169E+01   -0.33859E+01  1088   0.472E+01    0.105E+01
DAV:  10    -0.159062569771E+03    0.70039E+00   -0.44346E+00   856   0.161E+01    0.843E+00
DAV:  11    -0.158487750706E+03    0.57482E+00   -0.28002E+00   896   0.114E+01    0.515E+00
DAV:  12    -0.158521692982E+03   -0.33942E-01   -0.21109E+00  1088   0.127E+01    0.498E+00
DAV:  13    -0.158480977282E+03    0.40716E-01   -0.95488E-01  1080   0.851E+00    0.400E+00
DAV:  14    -0.158303566985E+03    0.17741E+00   -0.10436E+00   856   0.688E+00    0.171E+00
DAV:  15    -0.158293445834E+03    0.10121E-01   -0.30607E-01   904   0.382E+00    0.103E+00
DAV:  16    -0.158288451848E+03    0.49940E-02   -0.63834E-02   880   0.175E+00    0.713E-01
DAV:  17    -0.158284017463E+03    0.44344E-02   -0.26935E-02   872   0.124E+00    0.278E-01
DAV:  18    -0.158283415345E+03    0.60212E-03   -0.43461E-03   872   0.512E-01    0.971E-02
DAV:  19    -0.158283389876E+03    0.25469E-04   -0.93223E-04   896   0.214E-01    0.215E-02
DAV:  20    -0.158283390811E+03   -0.93541E-06   -0.49679E-05   616   0.516E-02
   1 F= -.15828339E+03 E0= -.15822544E+03  d E =-.158283E+03
       N       E                     dE             d eps       ncg     rms          rms(c)
DAV:   1    -0.214275240819E+03   -0.55992E+02   -0.21256E+03   544   0.349E+02    0.962E+01
DAV:   2    -0.417823936788E+03   -0.20355E+03   -0.33968E+03   944   0.251E+02    0.127E+02
DAV:   3    -0.165683620249E+03    0.25214E+03   -0.14817E+03   944   0.238E+02    0.728E+01
DAV:   4    -0.188422268683E+03   -0.22739E+02   -0.12618E+03  1088   0.201E+02    0.536E+01
DAV:   5    -0.169281719775E+03    0.19141E+02   -0.22675E+02   984   0.767E+01    0.400E+01
DAV:   6    -0.163888118837E+03    0.53936E+01   -0.59750E+01   928   0.415E+01    0.293E+01
DAV:   7    -0.161029458545E+03    0.28587E+01   -0.35454E+01  1088   0.335E+01    0.260E+01
DAV:   8    -0.159611614162E+03    0.14178E+01   -0.10257E+01   984   0.186E+01    0.223E+01
DAV:   9    -0.159484472259E+03    0.12714E+00   -0.47669E-01   928   0.392E+00    0.216E+01
DAV:  10    -0.159567222819E+03   -0.82751E-01   -0.13224E+00   952   0.602E+00    0.213E+01
DAV:  11    -0.161123542610E+03   -0.15563E+01   -0.11057E+01   936   0.165E+01    0.260E+01
DAV:  12    -0.159021415359E+03    0.21021E+01   -0.28556E+01  1088   0.280E+01    0.122E+01
DAV:  13    -0.158080801323E+03    0.94061E+00   -0.13894E+01   880   0.191E+01    0.677E+00
DAV:  14    -0.158492207115E+03   -0.41141E+00   -0.37321E+00  1016   0.960E+00    0.110E+01
DAV:  15    -0.158196207170E+03    0.29600E+00   -0.47001E-01   992   0.402E+00    0.826E+00
DAV:  16    -0.157862319089E+03    0.33389E+00   -0.12571E+00  1088   0.593E+00    0.214E+00
DAV:  17    -0.157851379717E+03    0.10939E-01   -0.11650E-01   920   0.184E+00    0.992E-01
DAV:  18    -0.157848859948E+03    0.25198E-02   -0.17763E-02   960   0.671E-01    0.540E-01
DAV:  19    -0.157848167741E+03    0.69221E-03   -0.14347E-02  1024   0.626E-01    0.216E-01
DAV:  20    -0.157848040780E+03    0.12696E-03   -0.22131E-03  1048   0.292E-01    0.108E-01
DAV:  21    -0.157847987438E+03    0.53342E-04   -0.17161E-04   960   0.779E-02    0.521E-02
DAV:  22    -0.157847977390E+03    0.10048E-04   -0.76772E-05   720   0.465E-02    0.227E-02
DAV:  23    -0.157847977951E+03   -0.56095E-06   -0.11139E-05   416   0.197E-02
   2 F= -.15784798E+03 E0= -.15772771E+03  d E =0.435413E+00
       N       E                     dE             d eps       ncg     rms          rms(c)
DAV:   1    -0.185541379994E+03   -0.27693E+02   -0.51232E+02   544   0.158E+02    0.527E+01
DAV:   2    -0.311352009526E+03   -0.12581E+03   -0.11348E+03  1000   0.299E+02    0.188E+02
DAV:   3    -0.237065689407E+03    0.74286E+02   -0.51211E+02   912   0.106E+02    0.655E+01
DAV:   4    -0.167623903304E+03    0.69442E+02   -0.26020E+02   984   0.895E+01    0.274E+01
DAV:   5    -0.164451234292E+03    0.31727E+01   -0.86265E+01   928   0.623E+01    0.131E+01
DAV:   6    -0.166062819906E+03   -0.16116E+01   -0.28797E+01   936   0.348E+01    0.165E+01
DAV:   7    -0.163723440462E+03    0.23394E+01   -0.11281E+01   864   0.226E+01    0.879E+00
DAV:   8    -0.163748441026E+03   -0.25001E-01   -0.34572E+00  1064   0.116E+01    0.806E+00
DAV:   9    -0.163681962387E+03    0.66479E-01   -0.17954E+00  1064   0.842E+00    0.736E+00
DAV:  10    -0.163585882591E+03    0.96080E-01   -0.78254E-01  1088   0.668E+00    0.482E+00
DAV:  11    -0.163592912920E+03   -0.70303E-02   -0.48662E-01   920   0.405E+00    0.403E+00
DAV:  12    -0.163580917630E+03    0.11995E-01   -0.26816E-01  1088   0.382E+00    0.345E+00
DAV:  13    -0.163576396894E+03    0.45207E-02   -0.29338E-02   936   0.118E+00    0.291E+00
DAV:  14    -0.163568118384E+03    0.82785E-02   -0.39164E-02  1080   0.121E+00    0.200E+00
DAV:  15    -0.163567014113E+03    0.11043E-02   -0.38134E-03   936   0.378E-01    0.155E+00
DAV:  16    -0.163566701497E+03    0.31262E-03   -0.61435E-04   864   0.129E-01    0.113E+00
DAV:  17    -0.163565812182E+03    0.88931E-03   -0.40050E-03  1088   0.410E-01    0.345E-01
DAV:  18    -0.163565805811E+03    0.63708E-05   -0.38619E-04   760   0.154E-01    0.152E-01
DAV:  19    -0.163565791346E+03    0.14465E-04   -0.14119E-04   888   0.639E-02    0.310E-02
DAV:  20    -0.163565789893E+03    0.14531E-05   -0.12159E-05   416   0.299E-02
   3 F= -.16356579E+03 E0= -.16347516E+03  d E =-.528240E+01
       N       E                     dE             d eps       ncg     rms          rms(c)
DAV:   1    -0.163622860267E+03   -0.57069E-01   -0.11811E+00   552   0.831E+00    0.242E+00
DAV:   2    -0.164528538282E+03   -0.90568E+00   -0.60556E+00  1088   0.199E+01    0.121E+01
DAV:   3    -0.163565502550E+03    0.96304E+00   -0.52757E+00  1088   0.178E+01    0.882E-01
DAV:   4    -0.163601391547E+03   -0.35889E-01   -0.47344E-01   904   0.434E+00    0.163E+00
DAV:   5    -0.163584163529E+03    0.17228E-01   -0.10357E-01   960   0.238E+00    0.829E-01
DAV:   6    -0.163581798781E+03    0.23647E-02   -0.29411E-02   896   0.109E+00    0.582E-01
DAV:   7    -0.163580193726E+03    0.16051E-02   -0.14111E-02  1080   0.774E-01    0.286E-01
DAV:   8    -0.163579567411E+03    0.62631E-03   -0.53731E-03   888   0.428E-01    0.653E-02
DAV:   9    -0.163579621701E+03   -0.54290E-04   -0.96276E-04   936   0.196E-01    0.906E-02
DAV:  10    -0.163579544093E+03    0.77608E-04   -0.60398E-04   880   0.157E-01    0.292E-02
DAV:  11    -0.163579556080E+03   -0.11987E-04   -0.14827E-04   904   0.771E-02    0.384E-02
DAV:  12    -0.163579540767E+03    0.15313E-04   -0.73475E-05   632   0.618E-02    0.980E-03
DAV:  13    -0.163579540203E+03    0.56442E-06   -0.13075E-05   344   0.197E-02
   4 F= -.16357954E+03 E0= -.16349058E+03  d E =-.529615E+01
       N       E                     dE             d eps       ncg     rms          rms(c)
DAV:   1    -0.165390339421E+03   -0.18108E+01   -0.89457E+01   544   0.348E+01    0.821E+00
DAV:   2    -0.175057778520E+03   -0.96674E+01   -0.75748E+01  1056   0.694E+01    0.344E+01
DAV:   3    -0.165079105496E+03    0.99787E+01   -0.50266E+01  1072   0.525E+01    0.563E+00
DAV:   4    -0.165164758703E+03   -0.85653E-01   -0.67023E+00   944   0.148E+01    0.378E+00
DAV:   5    -0.165199331021E+03   -0.34572E-01   -0.17846E+00  1048   0.926E+00    0.375E+00
DAV:   6    -0.165082782598E+03    0.11655E+00   -0.11823E+00  1072   0.792E+00    0.198E+00
DAV:   7    -0.165093688368E+03   -0.10906E-01   -0.41667E-01  1056   0.450E+00    0.205E+00
DAV:   8    -0.165052742274E+03    0.40946E-01   -0.28052E-01   876   0.315E+00    0.683E-01
DAV:   9    -0.165054252475E+03   -0.15102E-02   -0.43717E-02  1016   0.135E+00    0.621E-01
DAV:  10    -0.165051205343E+03    0.30471E-02   -0.23472E-02   888   0.928E-01    0.191E-01
DAV:  11    -0.165051154018E+03    0.51324E-04   -0.31078E-03   912   0.380E-01    0.100E-01
DAV:  12    -0.165051206385E+03   -0.52367E-04   -0.12124E-03   872   0.211E-01    0.103E-01
DAV:  13    -0.165051117479E+03    0.88907E-04   -0.75055E-04   888   0.174E-01    0.574E-02
DAV:  14    -0.165051093646E+03    0.23833E-04   -0.83659E-05   808   0.717E-02    0.141E-02
DAV:  15    -0.165051091994E+03    0.16518E-05   -0.14344E-05   384   0.284E-02
   5 F= -.16505109E+03 E0= -.16496326E+03  d E =-.147155E+01
       N       E                     dE             d eps       ncg     rms          rms(c)
DAV:   1    -0.167009634553E+03   -0.19585E+01   -0.33625E+02   544   0.700E+01    0.147E+01
DAV:   2    -0.190097420865E+03   -0.23088E+02   -0.19826E+02   976   0.122E+02    0.503E+01
DAV:   3    -0.166948153612E+03    0.23149E+02   -0.10648E+02   996   0.758E+01    0.112E+01
DAV:   4    -0.166962911409E+03   -0.14758E-01   -0.22451E+01   960   0.262E+01    0.742E+00
DAV:   5    -0.166815464079E+03    0.14745E+00   -0.64868E+00   944   0.172E+01    0.522E+00
DAV:   6    -0.166733199454E+03    0.82265E-01   -0.34741E+00  1080   0.132E+01    0.501E+00
DAV:   7    -0.166622382786E+03    0.11082E+00   -0.19786E+00  1088   0.102E+01    0.340E+00
DAV:   8    -0.166554037144E+03    0.68346E-01   -0.11368E+00   896   0.606E+00    0.257E+00
DAV:   9    -0.166525721880E+03    0.28315E-01   -0.16175E-01  1088   0.298E+00    0.140E+00
DAV:  10    -0.166518722225E+03    0.69997E-02   -0.92620E-02   896   0.195E+00    0.979E-01
DAV:  11    -0.166514348761E+03    0.43735E-02   -0.24586E-02  1072   0.110E+00    0.384E-01
DAV:  12    -0.166514730107E+03   -0.38135E-03   -0.72920E-03   904   0.521E-01    0.294E-01
DAV:  13    -0.166514234022E+03    0.49608E-03   -0.41702E-03   856   0.416E-01    0.190E-01
DAV:  14    -0.166514126443E+03    0.10758E-03   -0.43719E-04  1064   0.134E-01    0.105E-01
DAV:  15    -0.166514076183E+03    0.50260E-04   -0.19670E-04  1064   0.876E-02    0.348E-02
DAV:  16    -0.166514072046E+03    0.41371E-05   -0.12607E-05   424   0.270E-02
   6 F= -.16651407E+03 E0= -.16643588E+03  d E =-.293453E+01
       N       E                     dE             d eps       ncg     rms          rms(c)
DAV:   1    -0.166677998564E+03   -0.16392E+00   -0.33974E+01   544   0.223E+01    0.478E+00
DAV:   2    -0.170223538452E+03   -0.35455E+01   -0.26246E+01  1088   0.440E+01    0.221E+01
DAV:   3    -0.166574764983E+03    0.36488E+01   -0.20026E+01  1088   0.352E+01    0.249E+00
DAV:   4    -0.166665605953E+03   -0.90841E-01   -0.18229E+00   912   0.835E+00    0.234E+00
DAV:   5    -0.166641902890E+03    0.23703E-01   -0.34643E-01   984   0.419E+00    0.142E+00
DAV:   6    -0.166638159542E+03    0.37433E-02   -0.30317E-01   952   0.374E+00    0.149E+00
DAV:   7    -0.166624872541E+03    0.13287E-01   -0.14145E-01  1088   0.286E+00    0.773E-01
DAV:   8    -0.166620444386E+03    0.44282E-02   -0.65480E-02   856   0.153E+00    0.538E-01
DAV:   9    -0.166618799002E+03    0.16454E-02   -0.84899E-03  1080   0.694E-01    0.187E-01
DAV:  10    -0.166619027893E+03   -0.22889E-03   -0.50107E-03   888   0.444E-01    0.212E-01
DAV:  11    -0.166618613989E+03    0.41390E-03   -0.24480E-03   888   0.328E-01    0.419E-02
DAV:  12    -0.166618631084E+03   -0.17095E-04   -0.20542E-04   904   0.886E-02    0.488E-02
DAV:  13    -0.166618620745E+03    0.10339E-04   -0.10786E-04   760   0.699E-02    0.370E-02
DAV:  14    -0.166618607363E+03    0.13382E-04   -0.16966E-05   408   0.459E-02    0.165E-02
DAV:  15    -0.166618607228E+03    0.13514E-06   -0.33374E-05   528   0.233E-02
   7 F= -.16661861E+03 E0= -.16654636E+03  d E =-.303907E+01
       N       E                     dE             d eps       ncg     rms          rms(c)
DAV:   1    -0.167258656640E+03   -0.64005E+00   -0.19537E+02   568   0.581E+01    0.753E+00
DAV:   2    -0.176156114357E+03   -0.88975E+01   -0.82723E+01  1048   0.649E+01    0.328E+01
DAV:   3    -0.167663320238E+03    0.84928E+01   -0.45819E+01  1088   0.483E+01    0.707E+00
DAV:   4    -0.167423529287E+03    0.23979E+00   -0.45358E+00  1040   0.158E+01    0.255E+00
DAV:   5    -0.167511055705E+03   -0.87526E-01   -0.13970E+00   928   0.768E+00    0.372E+00
DAV:   6    -0.167364909449E+03    0.14615E+00   -0.10194E+00   904   0.687E+00    0.108E+00
DAV:   7    -0.167401872103E+03   -0.36963E-01   -0.43873E-01   904   0.414E+00    0.211E+00
DAV:   8    -0.167353510992E+03    0.48361E-01   -0.28180E-01   952   0.347E+00    0.356E-01
DAV:   9    -0.167355339632E+03   -0.18286E-02   -0.30837E-02   920   0.108E+00    0.419E-01
DAV:  10    -0.167353729587E+03    0.16100E-02   -0.11081E-02   872   0.708E-01    0.123E-01
DAV:  11    -0.167353844233E+03   -0.11465E-03   -0.35981E-03   888   0.375E-01    0.145E-01
DAV:  12    -0.167353643787E+03    0.20045E-03   -0.14810E-03   888   0.242E-01    0.449E-02
DAV:  13    -0.167353634743E+03    0.90439E-05   -0.20874E-04   928   0.956E-02    0.142E-02
DAV:  14    -0.167353635343E+03   -0.59990E-06   -0.10101E-05   408   0.296E-02
   8 F= -.16735364E+03 E0= -.16728823E+03  d E =-.735028E+00
       N       E                     dE             d eps       ncg     rms          rms(c)
DAV:   1    -0.167373399319E+03   -0.19765E-01   -0.55090E+00   544   0.864E+00    0.131E+00
DAV:   2    -0.167665389965E+03   -0.29199E+00   -0.25173E+00  1080   0.113E+01    0.622E+00
DAV:   3    -0.167372683584E+03    0.29271E+00   -0.17102E+00  1088   0.929E+00    0.686E-01
DAV:   4    -0.167376380547E+03   -0.36970E-02   -0.92122E-02   880   0.244E+00    0.568E-01
DAV:   5    -0.167375149310E+03    0.12312E-02   -0.38705E-02   976   0.146E+00    0.464E-01
DAV:   6    -0.167373719424E+03    0.14299E-02   -0.24799E-02   888   0.104E+00    0.317E-01
DAV:   7    -0.167373062818E+03    0.65661E-03   -0.90777E-03  1000   0.625E-01    0.188E-01
DAV:   8    -0.167372754249E+03    0.30857E-03   -0.37107E-03   928   0.388E-01    0.941E-02
DAV:   9    -0.167372713203E+03    0.41046E-04   -0.63830E-04  1088   0.184E-01    0.561E-02
DAV:  10    -0.167372683747E+03    0.29456E-04   -0.26413E-04   912   0.113E-01    0.172E-02
DAV:  11    -0.167372682817E+03    0.93035E-06   -0.18581E-05   456   0.364E-02
   9 F= -.16737268E+03 E0= -.16730773E+03  d E =-.754076E+00
       N       E                     dE             d eps       ncg     rms          rms(c)
DAV:   1    -0.169648489912E+03   -0.22758E+01   -0.13898E+02   624   0.636E+01    0.199E+01
DAV:   2    -0.206780982759E+03   -0.37132E+02   -0.31487E+02  1040   0.171E+02    0.658E+01
DAV:   3    -0.168156941265E+03    0.38624E+02   -0.17224E+02  1016   0.814E+01    0.161E+01
DAV:   4    -0.167955333326E+03    0.20161E+00   -0.30768E+01  1072   0.386E+01    0.101E+01
DAV:   5    -0.167437010889E+03    0.51832E+00   -0.97272E+00   852   0.211E+01    0.556E+00
DAV:   6    -0.167417836900E+03    0.19174E-01   -0.31945E+00  1072   0.129E+01    0.501E+00
DAV:   7    -0.167328458353E+03    0.89379E-01   -0.11371E+00   936   0.709E+00    0.413E+00
DAV:   8    -0.167327751796E+03    0.70656E-03   -0.39277E-01   904   0.407E+00    0.353E+00
DAV:   9    -0.167265405390E+03    0.62346E-01   -0.21278E-01  1072   0.357E+00    0.203E+00
DAV:  10    -0.167252934428E+03    0.12471E-01   -0.11438E-01  1088   0.221E+00    0.119E+00
DAV:  11    -0.167244888803E+03    0.80456E-02   -0.59847E-02   860   0.149E+00    0.711E-01
DAV:  12    -0.167244602470E+03    0.28633E-03   -0.55157E-03   888   0.454E-01    0.522E-01
DAV:  13    -0.167244268794E+03    0.33368E-03   -0.11933E-03   952   0.223E-01    0.427E-01
DAV:  14    -0.167243813479E+03    0.45532E-03   -0.94221E-04  1088   0.204E-01    0.248E-01
DAV:  15    -0.167243536276E+03    0.27720E-03   -0.11854E-03  1088   0.246E-01    0.324E-02
DAV:  16    -0.167243541481E+03   -0.52044E-05   -0.83333E-05   664   0.691E-02
  10 F= -.16724354E+03 E0= -.16718273E+03  d E =0.129141E+00
       N       E                     dE             d eps       ncg     rms          rms(c)
DAV:   1    -0.168256630434E+03   -0.10131E+01   -0.47349E+01   672   0.412E+01    0.999E+00
DAV:   2    -0.184581950372E+03   -0.16325E+02   -0.12208E+02  1000   0.895E+01    0.452E+01
DAV:   3    -0.167157730652E+03    0.17424E+02   -0.63317E+01  1072   0.573E+01    0.360E+00
DAV:   4    -0.167740451276E+03   -0.58272E+00   -0.68157E+00   920   0.169E+01    0.437E+00
DAV:   5    -0.167597853092E+03    0.14260E+00   -0.16628E+00   944   0.935E+00    0.174E+00
DAV:   6    -0.167603554954E+03   -0.57019E-02   -0.61973E-01   952   0.541E+00    0.199E+00
DAV:   7    -0.167556526504E+03    0.47028E-01   -0.25134E-01  1008   0.354E+00    0.762E-01
DAV:   8    -0.167560035959E+03   -0.35095E-02   -0.85050E-02   880   0.180E+00    0.958E-01
DAV:   9    -0.167552715598E+03    0.73204E-02   -0.56001E-02   872   0.152E+00    0.421E-01
DAV:  10    -0.167552573787E+03    0.14181E-03   -0.10863E-02   912   0.700E-01    0.344E-01
DAV:  11    -0.167551569594E+03    0.10042E-02   -0.39145E-03   880   0.426E-01    0.159E-01
DAV:  12    -0.167551512286E+03    0.57308E-04   -0.96371E-04   840   0.196E-01    0.605E-02
DAV:  13    -0.167551560563E+03   -0.48277E-04   -0.54945E-04   864   0.145E-01    0.692E-02
DAV:  14    -0.167551521299E+03    0.39264E-04   -0.27914E-04   840   0.113E-01    0.198E-02
DAV:  15    -0.167551523429E+03   -0.21298E-05   -0.24640E-05   504   0.352E-02
  11 F= -.16755152E+03 E0= -.16748960E+03  d E =-.178841E+00
       N       E                     dE             d eps       ncg     rms          rms(c)
DAV:   1    -0.167625408573E+03   -0.73887E-01   -0.92767E+00   544   0.113E+01    0.179E+00
DAV:   2    -0.168064315538E+03   -0.43891E+00   -0.40068E+00  1080   0.142E+01    0.767E+00
DAV:   3    -0.167627897252E+03    0.43642E+00   -0.27330E+00  1088   0.116E+01    0.106E+00
DAV:   4    -0.167631949306E+03   -0.40521E-02   -0.16150E-01   976   0.346E+00    0.830E-01
DAV:   5    -0.167626751473E+03    0.51978E-02   -0.70097E-02  1016   0.221E+00    0.588E-01
DAV:   6    -0.167625398918E+03    0.13526E-02   -0.43888E-02   896   0.145E+00    0.462E-01
DAV:   7    -0.167623671335E+03    0.17276E-02   -0.17986E-02   984   0.896E-01    0.235E-01
DAV:   8    -0.167623143923E+03    0.52741E-03   -0.57598E-03   896   0.498E-01    0.114E-01
DAV:   9    -0.167623113183E+03    0.30740E-04   -0.10231E-03  1016   0.226E-01    0.825E-02
DAV:  10    -0.167623053338E+03    0.59845E-04   -0.59057E-04   968   0.159E-01    0.217E-02
DAV:  11    -0.167623054377E+03   -0.10394E-05   -0.68211E-05   688   0.559E-02
  12 F= -.16762305E+03 E0= -.16756371E+03  d E =-.715309E-01
       N       E                     dE             d eps       ncg     rms          rms(c)
DAV:   1    -0.167629332283E+03   -0.62789E-02   -0.12427E+00   544   0.405E+00    0.650E-01
DAV:   2    -0.167687980283E+03   -0.58648E-01   -0.52976E-01  1080   0.512E+00    0.277E+00
DAV:   3    -0.167629367375E+03    0.58613E-01   -0.36513E-01  1088   0.426E+00    0.361E-01
DAV:   4    -0.167630180211E+03   -0.81284E-03   -0.20497E-02   992   0.124E+00    0.318E-01
DAV:   5    -0.167629199635E+03    0.98058E-03   -0.98387E-03  1008   0.818E-01    0.191E-01
DAV:   6    -0.167629253847E+03   -0.54211E-04   -0.62740E-03   888   0.503E-01    0.201E-01
DAV:   7    -0.167628854833E+03    0.39901E-03   -0.27060E-03  1008   0.348E-01    0.647E-02
DAV:   8    -0.167628831468E+03    0.23365E-04   -0.47610E-04   896   0.152E-01    0.388E-02
DAV:   9    -0.167628825331E+03    0.61367E-05   -0.13958E-04   776   0.861E-02    0.299E-02
DAV:  10    -0.167628815992E+03    0.93395E-05   -0.59165E-05   696   0.578E-02
  13 F= -.16762882E+03 E0= -.16757026E+03  d E =-.772926E-01
       N       E                     dE             d eps       ncg     rms          rms(c)
DAV:   1    -0.167692093750E+03   -0.63268E-01   -0.59022E+00   560   0.121E+01    0.317E+00
DAV:   2    -0.169269720264E+03   -0.15776E+01   -0.11148E+01  1088   0.282E+01    0.155E+01
DAV:   3    -0.167624119802E+03    0.16456E+01   -0.89023E+00  1088   0.237E+01    0.115E+00
DAV:   4    -0.167678226475E+03   -0.54107E-01   -0.76016E-01   912   0.546E+00    0.178E+00
DAV:   5    -0.167656012162E+03    0.22214E-01   -0.17153E-01   912   0.296E+00    0.973E-01
DAV:   6    -0.167653161607E+03    0.28506E-02   -0.46940E-02  1072   0.154E+00    0.620E-01
DAV:   7    -0.167649575212E+03    0.35864E-02   -0.26614E-02   936   0.106E+00    0.155E-01
DAV:   8    -0.167649897723E+03   -0.32251E-03   -0.58048E-03   896   0.499E-01    0.224E-01
DAV:   9    -0.167649531896E+03    0.36583E-03   -0.31641E-03   904   0.380E-01    0.128E-01
DAV:  10    -0.167649506175E+03    0.25721E-04   -0.67839E-04  1016   0.203E-01    0.984E-02
DAV:  11    -0.167649431937E+03    0.74238E-04   -0.43216E-04  1040   0.137E-01    0.274E-02
DAV:  12    -0.167649429394E+03    0.25433E-05   -0.58924E-05   640   0.560E-02
  14 F= -.16764943E+03 E0= -.16759221E+03  d E =-.206134E-01
       N       E                     dE             d eps       ncg     rms          rms(c)
DAV:   1    -0.167650947425E+03   -0.15155E-02   -0.11862E-01   608   0.175E+00    0.433E-01
DAV:   2    -0.167682206235E+03   -0.31259E-01   -0.21599E-01  1088   0.383E+00    0.221E+00
DAV:   3    -0.167649669567E+03    0.32537E-01   -0.16326E-01  1088   0.322E+00    0.134E-01
DAV:   4    -0.167650472824E+03   -0.80326E-03   -0.10247E-02   808   0.690E-01    0.214E-01
DAV:   5    -0.167650062075E+03    0.41075E-03   -0.29418E-03   888   0.410E-01    0.939E-02
DAV:   6    -0.167650022019E+03    0.40056E-04   -0.43134E-04  1072   0.155E-01    0.500E-02
DAV:   7    -0.167650003115E+03    0.18904E-04   -0.18846E-04   840   0.934E-02    0.225E-02
DAV:   8    -0.167650003712E+03   -0.59740E-06   -0.88721E-05   680   0.640E-02
  15 F= -.16765000E+03 E0= -.16759267E+03  d E =-.211877E-01
       N       E                     dE             d eps       ncg     rms          rms(c)
DAV:   1    -0.167677590685E+03   -0.27588E-01   -0.46862E+00   560   0.980E+00    0.219E+00
DAV:   2    -0.168573728230E+03   -0.89614E+00   -0.61886E+00  1080   0.210E+01    0.113E+01
DAV:   3    -0.167649963433E+03    0.92376E+00   -0.41497E+00  1088   0.165E+01    0.819E-01
DAV:   4    -0.167667380778E+03   -0.17417E-01   -0.23820E-01   832   0.338E+00    0.733E-01
DAV:   5    -0.167664005364E+03    0.33754E-02   -0.68313E-02   896   0.184E+00    0.493E-01
DAV:   6    -0.167662494057E+03    0.15113E-02   -0.19452E-02   944   0.954E-01    0.332E-01
DAV:   7    -0.167661575287E+03    0.91877E-03   -0.86247E-03   888   0.601E-01    0.154E-01
DAV:   8    -0.167661512084E+03    0.63202E-04   -0.22357E-03   928   0.309E-01    0.150E-01
DAV:   9    -0.167661347281E+03    0.16480E-03   -0.10594E-03   920   0.222E-01    0.662E-02
DAV:  10    -0.167661337356E+03    0.99254E-05   -0.26746E-04   944   0.113E-01    0.428E-02
DAV:  11    -0.167661324900E+03    0.12455E-04   -0.13666E-04   880   0.768E-02    0.139E-02
DAV:  12    -0.167661326982E+03   -0.20817E-05   -0.12037E-05   392   0.315E-02
  16 F= -.16766133E+03 E0= -.16760195E+03  d E =-.113233E-01
       N       E                     dE             d eps       ncg     rms          rms(c)
DAV:   1    -0.167663250484E+03   -0.19256E-02   -0.24361E-01   560   0.218E+00    0.498E-01
DAV:   2    -0.167708809445E+03   -0.45559E-01   -0.31070E-01  1088   0.473E+00    0.259E+00
DAV:   3    -0.167661922930E+03    0.46887E-01   -0.23963E-01  1088   0.394E+00    0.187E-01
DAV:   4    -0.167662974515E+03   -0.10516E-02   -0.15478E-02   836   0.804E-01    0.248E-01
DAV:   5    -0.167662578869E+03    0.39565E-03   -0.37929E-03   888   0.439E-01    0.121E-01
DAV:   6    -0.167662594125E+03   -0.15255E-04   -0.25146E-03   856   0.300E-01    0.137E-01
DAV:   7    -0.167662431611E+03    0.16251E-03   -0.11206E-03  1008   0.223E-01    0.287E-02
DAV:   8    -0.167662435984E+03   -0.43731E-05   -0.86542E-05   760   0.588E-02
  17 F= -.16766244E+03 E0= -.16760371E+03  d E =-.124323E-01
       N       E                     dE             d eps       ncg     rms          rms(c)
DAV:   1    -0.167668048626E+03   -0.56170E-02   -0.75256E-01   544   0.291E+00    0.264E-01
DAV:   2    -0.167679573383E+03   -0.11525E-01   -0.10881E-01   920   0.220E+00    0.104E+00
DAV:   3    -0.167668994070E+03    0.10579E-01   -0.66932E-02   976   0.174E+00    0.152E-01
DAV:   4    -0.167669226968E+03   -0.23290E-03   -0.50454E-03   928   0.493E-01    0.178E-01
DAV:   5    -0.167668810183E+03    0.41679E-03   -0.26362E-03   944   0.373E-01    0.624E-02
DAV:   6    -0.167668955475E+03   -0.14529E-03   -0.19540E-03  1008   0.272E-01    0.143E-01
DAV:   7    -0.167668775816E+03    0.17966E-03   -0.10223E-03  1088   0.229E-01    0.266E-02
DAV:   8    -0.167668780445E+03   -0.46291E-05   -0.13785E-04   960   0.880E-02    0.322E-02
DAV:   9    -0.167668770366E+03    0.10080E-04   -0.50073E-05   648   0.641E-02    0.109E-02
DAV:  10    -0.167668769335E+03    0.10309E-05   -0.14019E-05   352   0.300E-02
  18 F= -.16766877E+03 E0= -.16760926E+03  d E =-.633335E-02
       N       E                     dE             d eps       ncg     rms          rms(c)
DAV:   1    -0.167671542004E+03   -0.27716E-02   -0.38444E+00   544   0.657E+00    0.633E-01
DAV:   2    -0.167738670919E+03   -0.67129E-01   -0.62259E-01   912   0.530E+00    0.256E+00
DAV:   3    -0.167675641785E+03    0.63029E-01   -0.38381E-01   928   0.421E+00    0.355E-01
DAV:   4    -0.167676986453E+03   -0.13447E-02   -0.29247E-02   920   0.118E+00    0.374E-01
DAV:   5    -0.167675143833E+03    0.18426E-02   -0.11635E-02   920   0.802E-01    0.163E-01
DAV:   6    -0.167675693841E+03   -0.55001E-03   -0.10161E-02  1016   0.633E-01    0.303E-01
DAV:   7    -0.167674894385E+03    0.79946E-03   -0.46882E-03  1088   0.501E-01    0.725E-02
DAV:   8    -0.167674910515E+03   -0.16130E-04   -0.88569E-04  1080   0.219E-01    0.770E-02
DAV:   9    -0.167674866544E+03    0.43971E-04   -0.39507E-04  1064   0.151E-01    0.328E-02
DAV:  10    -0.167674855826E+03    0.10718E-04   -0.12306E-04   856   0.756E-02    0.145E-02
DAV:  11    -0.167674853983E+03    0.18426E-05   -0.78800E-06   336   0.272E-02
  19 F= -.16767485E+03 E0= -.16761312E+03  d E =-.124180E-01
       N       E                     dE             d eps       ncg     rms          rms(c)
DAV:   1    -0.167680073835E+03   -0.52180E-02   -0.57914E-01   544   0.296E+00    0.502E-01
DAV:   2    -0.167711685827E+03   -0.31612E-01   -0.26676E-01  1080   0.399E+00    0.217E+00
DAV:   3    -0.167679684620E+03    0.32001E-01   -0.18654E-01  1088   0.329E+00    0.270E-01
DAV:   4    -0.167680305620E+03   -0.62100E-03   -0.15247E-02   912   0.936E-01    0.266E-01
DAV:   5    -0.167679604382E+03    0.70124E-03   -0.68530E-03   912   0.618E-01    0.149E-01
DAV:   6    -0.167679521023E+03    0.83359E-04   -0.34993E-03   876   0.361E-01    0.131E-01
DAV:   7    -0.167679357231E+03    0.16379E-03   -0.98898E-04   952   0.214E-01    0.250E-02
DAV:   8    -0.167679377291E+03   -0.20060E-04   -0.32178E-04   920   0.124E-01    0.505E-02
DAV:   9    -0.167679346116E+03    0.31176E-04   -0.16703E-04   824   0.971E-02    0.148E-02
DAV:  10    -0.167679344643E+03    0.14731E-05   -0.13252E-05   368   0.308E-02
  20 F= -.16767934E+03 E0= -.16761646E+03  d E =-.449066E-02
       N       E                     dE             d eps       ncg     rms          rms(c)
DAV:   1    -0.167686995549E+03   -0.76494E-02   -0.25469E+00   544   0.626E+00    0.106E+00
DAV:   2    -0.167831532251E+03   -0.14454E+00   -0.12115E+00  1080   0.844E+00    0.467E+00
DAV:   3    -0.167685007860E+03    0.14652E+00   -0.85585E-01  1088   0.694E+00    0.550E-01
DAV:   4    -0.167688444100E+03   -0.34362E-02   -0.69816E-02   920   0.198E+00    0.588E-01
DAV:   5    -0.167684825291E+03    0.36188E-02   -0.31922E-02   904   0.133E+00    0.295E-01
DAV:   6    -0.167684675409E+03    0.14988E-03   -0.14484E-02   868   0.742E-01    0.285E-01
DAV:   7    -0.167683899004E+03    0.77641E-03   -0.47698E-03   912   0.456E-01    0.543E-02
DAV:   8    -0.167684006791E+03   -0.10779E-03   -0.15327E-03   952   0.263E-01    0.115E-01
DAV:   9    -0.167683854119E+03    0.15267E-03   -0.85670E-04  1000   0.217E-01    0.328E-02
DAV:  10    -0.167683849523E+03    0.45956E-05   -0.11223E-04   760   0.665E-02    0.204E-02
DAV:  11    -0.167683846628E+03    0.28954E-05   -0.16821E-05   360   0.426E-02
  21 F= -.16768385E+03 E0= -.16761708E+03  d E =-.899264E-02
       N       E                     dE             d eps       ncg     rms          rms(c)
DAV:   1    -0.167688736088E+03   -0.48866E-02   -0.44202E-01   544   0.269E+00    0.612E-01
DAV:   2    -0.167759762304E+03   -0.71026E-01   -0.48129E-01  1088   0.582E+00    0.325E+00
DAV:   3    -0.167686832247E+03    0.72930E-01   -0.35561E-01  1088   0.480E+00    0.235E-01
DAV:   4    -0.167688247229E+03   -0.14150E-02   -0.21488E-02   856   0.935E-01    0.263E-01
DAV:   5    -0.167687763243E+03    0.48399E-03   -0.68617E-03   896   0.550E-01    0.150E-01
DAV:   6    -0.167687778447E+03   -0.15204E-04   -0.34464E-03   904   0.369E-01    0.174E-01
DAV:   7    -0.167687519112E+03    0.25933E-03   -0.19010E-03  1016   0.277E-01    0.396E-02
DAV:   8    -0.167687543674E+03   -0.24562E-04   -0.47831E-04   876   0.143E-01    0.599E-02
DAV:   9    -0.167687508855E+03    0.34818E-04   -0.18498E-04   856   0.101E-01    0.228E-02
DAV:  10    -0.167687505619E+03    0.32368E-05   -0.20158E-05   416   0.373E-02
  22 F= -.16768751E+03 E0= -.16761885E+03  d E =-.365899E-02
       N       E                     dE             d eps       ncg     rms          rms(c)
DAV:   1    -0.167691202940E+03   -0.36941E-02   -0.44168E-01   544   0.270E+00    0.621E-01
DAV:   2    -0.167764080760E+03   -0.72878E-01   -0.49357E-01  1088   0.592E+00    0.330E+00
DAV:   3    -0.167689226262E+03    0.74854E-01   -0.36660E-01  1088   0.487E+00    0.237E-01
DAV:   4    -0.167690667965E+03   -0.14417E-02   -0.21639E-02   856   0.943E-01    0.262E-01
DAV:   5    -0.167690197831E+03    0.47013E-03   -0.67605E-03   888   0.545E-01    0.151E-01
DAV:   6    -0.167690215698E+03   -0.17866E-04   -0.34549E-03   904   0.372E-01    0.174E-01
DAV:   7    -0.167689952294E+03    0.26340E-03   -0.19622E-03  1000   0.280E-01    0.411E-02
DAV:   8    -0.167689977622E+03   -0.25328E-04   -0.49174E-04   868   0.145E-01    0.615E-02
DAV:   9    -0.167689940628E+03    0.36994E-04   -0.18865E-04   836   0.104E-01    0.222E-02
DAV:  10    -0.167689937853E+03    0.27741E-05   -0.18274E-05   388   0.375E-02
  23 F= -.16768994E+03 E0= -.16761905E+03  d E =-.609123E-02
       N       E                     dE             d eps       ncg     rms          rms(c)
DAV:   1    -0.167697080594E+03   -0.71400E-02   -0.17725E+00   544   0.536E+00    0.124E+00
DAV:   2    -0.167983062264E+03   -0.28598E+00   -0.19520E+00  1088   0.117E+01    0.654E+00
DAV:   3    -0.167688762102E+03    0.29430E+00   -0.14579E+00  1088   0.974E+00    0.472E-01
DAV:   4    -0.167695347535E+03   -0.65854E-02   -0.93486E-02   864   0.193E+00    0.584E-01
DAV:   5    -0.167692934282E+03    0.24133E-02   -0.27297E-02   872   0.109E+00    0.298E-01
DAV:   6    -0.167693034235E+03   -0.99953E-04   -0.12583E-02   916   0.713E-01    0.341E-01
DAV:   7    -0.167692019601E+03    0.10146E-02   -0.77423E-03  1040   0.564E-01    0.830E-02
DAV:   8    -0.167692122595E+03   -0.10299E-03   -0.17052E-03   892   0.281E-01    0.125E-01
DAV:   9    -0.167691971599E+03    0.15100E-03   -0.75959E-04   944   0.208E-01    0.463E-02
DAV:  10    -0.167691963662E+03    0.79367E-05   -0.14101E-04   832   0.776E-02    0.269E-02
DAV:  11    -0.167691958077E+03    0.55852E-05   -0.45615E-05   624   0.507E-02
  24 F= -.16769196E+03 E0= -.16761569E+03  d E =-.811145E-02
       N       E                     dE             d eps       ncg     rms          rms(c)
DAV:   1    -0.167693762496E+03   -0.17988E-02   -0.15060E-01   544   0.127E+00    0.149E-01
DAV:   2    -0.167697013787E+03   -0.32513E-02   -0.26495E-02  1088   0.124E+00    0.616E-01
DAV:   3    -0.167693922283E+03    0.30915E-02   -0.16521E-02  1088   0.102E+00    0.858E-02
DAV:   4    -0.167694004567E+03   -0.82284E-04   -0.17827E-03   960   0.307E-01    0.112E-01
DAV:   5    -0.167693871412E+03    0.13315E-03   -0.11354E-03   920   0.228E-01    0.424E-02
DAV:   6    -0.167693885543E+03   -0.14131E-04   -0.48405E-04   872   0.135E-01    0.532E-02
DAV:   7    -0.167693856085E+03    0.29457E-04   -0.22858E-04   940   0.105E-01    0.166E-02
DAV:   8    -0.167693853723E+03    0.23629E-05   -0.16231E-05   348   0.411E-02
  25 F= -.16769385E+03 E0= -.16761563E+03  d E =-.189565E-02
       N       E                     dE             d eps       ncg     rms          rms(c)
DAV:   1    -0.167700863053E+03   -0.70070E-02   -0.13526E+00   544   0.383E+00    0.450E-01
DAV:   2    -0.167729066206E+03   -0.28203E-01   -0.24122E-01  1080   0.359E+00    0.179E+00
DAV:   3    -0.167702322335E+03    0.26744E-01   -0.14994E-01  1088   0.295E+00    0.248E-01
DAV:   4    -0.167703117100E+03   -0.79476E-03   -0.16289E-02   944   0.944E-01    0.344E-01
DAV:   5    -0.167701777835E+03    0.13393E-02   -0.95007E-03   892   0.672E-01    0.112E-01
DAV:   6    -0.167701935641E+03   -0.15781E-03   -0.41617E-03   888   0.390E-01    0.160E-01
DAV:   7    -0.167701691100E+03    0.24454E-03   -0.19021E-03  1088   0.306E-01    0.569E-02
DAV:   8    -0.167701675023E+03    0.16077E-04   -0.28484E-04  1040   0.133E-01    0.321E-02
DAV:   9    -0.167701666447E+03    0.85755E-05   -0.46490E-05   552   0.567E-02
  26 F= -.16770167E+03 E0= -.16761782E+03  d E =-.970837E-02
       N       E                     dE             d eps       ncg     rms          rms(c)
DAV:   1    -0.167729009018E+03   -0.27334E-01   -0.54557E+00   544   0.767E+00    0.936E-01
DAV:   2    -0.167851073253E+03   -0.12206E+00   -0.10630E+00  1064   0.734E+00    0.366E+00
DAV:   3    -0.167734534519E+03    0.11654E+00   -0.70818E-01  1088   0.600E+00    0.479E-01
DAV:   4    -0.167738261880E+03   -0.37274E-02   -0.69479E-02   920   0.197E+00    0.712E-01
DAV:   5    -0.167732353186E+03    0.59087E-02   -0.35516E-02   904   0.134E+00    0.196E-01
DAV:   6    -0.167733246236E+03   -0.89305E-03   -0.16596E-02   884   0.774E-01    0.339E-01
DAV:   7    -0.167732081674E+03    0.11646E-02   -0.80170E-03   924   0.599E-01    0.892E-02
DAV:   8    -0.167732122459E+03   -0.40784E-04   -0.12982E-03  1072   0.260E-01    0.966E-02
DAV:   9    -0.167732053543E+03    0.68915E-04   -0.47305E-04  1056   0.158E-01    0.295E-02
DAV:  10    -0.167732057581E+03   -0.40381E-05   -0.12548E-04   816   0.790E-02    0.334E-02
DAV:  11    -0.167732044918E+03    0.12664E-04   -0.45937E-05   560   0.596E-02    0.745E-03
DAV:  12    -0.167732045885E+03   -0.96742E-06   -0.16448E-05   324   0.211E-02
  27 F= -.16773205E+03 E0= -.16764245E+03  d E =-.400878E-01
       N       E                     dE             d eps       ncg     rms          rms(c)
DAV:   1    -0.167837596312E+03   -0.10555E+00   -0.22062E+01   544   0.155E+01    0.186E+00
DAV:   2    -0.168309511876E+03   -0.47192E+00   -0.42168E+00  1056   0.144E+01    0.707E+00
DAV:   3    -0.167863592758E+03    0.44592E+00   -0.29084E+00  1064   0.119E+01    0.957E-01
DAV:   4    -0.167879457007E+03   -0.15864E-01   -0.30030E-01   888   0.396E+00    0.151E+00
DAV:   5    -0.167857167044E+03    0.22290E-01   -0.13781E-01   876   0.251E+00    0.604E-01
DAV:   6    -0.167858436458E+03   -0.12694E-02   -0.79403E-02  1072   0.191E+00    0.796E-01
DAV:   7    -0.167855507549E+03    0.29289E-02   -0.40437E-02  1080   0.154E+00    0.454E-01
DAV:   8    -0.167853737446E+03    0.17701E-02   -0.11437E-02  1056   0.853E-01    0.115E-01
DAV:   9    -0.167853738588E+03   -0.11422E-05   -0.16717E-03   896   0.267E-01    0.886E-02
DAV:  10    -0.167853700092E+03    0.38496E-04   -0.65228E-04   912   0.167E-01    0.694E-02
DAV:  11    -0.167853669280E+03    0.30812E-04   -0.21607E-04  1072   0.106E-01    0.148E-02
DAV:  12    -0.167853668154E+03    0.11261E-05   -0.76376E-06   360   0.274E-02
  28 F= -.16785367E+03 E0= -.16777726E+03  d E =-.161710E+00
       N       E                     dE             d eps       ncg     rms          rms(c)
DAV:   1    -0.167989584127E+03   -0.13591E+00   -0.88854E+01   544   0.325E+01    0.386E+00
DAV:   2    -0.170068267438E+03   -0.20787E+01   -0.18565E+01  1056   0.302E+01    0.148E+01
DAV:   3    -0.168145588739E+03    0.19227E+01   -0.13108E+01  1032   0.252E+01    0.290E+00
DAV:   4    -0.168120669776E+03    0.24919E-01   -0.12789E+00   872   0.800E+00    0.220E+00
DAV:   5    -0.168085408817E+03    0.35261E-01   -0.36445E-01  1080   0.414E+00    0.195E+00
DAV:   6    -0.168069054533E+03    0.16354E-01   -0.38471E-01  1080   0.463E+00    0.145E+00
DAV:   7    -0.168063121111E+03    0.59334E-02   -0.11823E-01  1072   0.293E+00    0.910E-01
DAV:   8    -0.168054066264E+03    0.90548E-02   -0.64566E-02  1032   0.178E+00    0.211E-01
DAV:   9    -0.168054378374E+03   -0.31211E-03   -0.97213E-03   912   0.661E-01    0.234E-01
DAV:  10    -0.168053778517E+03    0.59986E-03   -0.42396E-03   920   0.495E-01    0.618E-02
DAV:  11    -0.168053806424E+03   -0.27907E-04   -0.54156E-04   904   0.158E-01    0.584E-02
DAV:  12    -0.168053770817E+03    0.35607E-04   -0.39117E-04   904   0.137E-01    0.253E-02
DAV:  13    -0.168053765190E+03    0.56270E-05   -0.27948E-05   496   0.477E-02
  29 F= -.16805377E+03 E0= -.16798904E+03  d E =-.361807E+00
       N       E                     dE             d eps       ncg     rms          rms(c)
DAV:   1    -0.168052870653E+03    0.90016E-03   -0.35984E+00   544   0.626E+00    0.798E-01
DAV:   2    -0.168158992498E+03   -0.10612E+00   -0.86610E-01  1064   0.674E+00    0.324E+00
DAV:   3    -0.168054974522E+03    0.10402E+00   -0.60746E-01  1080   0.561E+00    0.455E-01
DAV:   4    -0.168057531688E+03   -0.25572E-02   -0.56409E-02   904   0.154E+00    0.669E-01
DAV:   5    -0.168054362497E+03    0.31692E-02   -0.30650E-02  1064   0.126E+00    0.442E-01
DAV:   6    -0.168053527091E+03    0.83541E-03   -0.17973E-02  1088   0.111E+00    0.296E-01
DAV:   7    -0.168052912437E+03    0.61465E-03   -0.48765E-03  1072   0.563E-01    0.107E-01
DAV:   8    -0.168052828731E+03    0.83707E-04   -0.16518E-03   888   0.257E-01    0.648E-02
DAV:   9    -0.168052798283E+03    0.30448E-04   -0.27249E-04   928   0.123E-01    0.275E-02
DAV:  10    -0.168052793217E+03    0.50656E-05   -0.97087E-05   768   0.648E-02
  30 F= -.16805279E+03 E0= -.16799000E+03  d E =-.360835E+00
       N       E                     dE             d eps       ncg     rms          rms(c)
DAV:   1    -0.168056008039E+03   -0.32098E-02   -0.10457E+00   544   0.337E+00    0.425E-01
DAV:   2    -0.168088013908E+03   -0.32006E-01   -0.25423E-01  1056   0.378E+00    0.173E+00
DAV:   3    -0.168056291421E+03    0.31722E-01   -0.16550E-01  1088   0.312E+00    0.223E-01
DAV:   4    -0.168056897345E+03   -0.60592E-03   -0.13370E-02   888   0.791E-01    0.279E-01
DAV:   5    -0.168056148252E+03    0.74909E-03   -0.73697E-03  1016   0.602E-01    0.183E-01
DAV:   6    -0.168056225108E+03   -0.76856E-04   -0.50695E-03  1080   0.516E-01    0.213E-01
DAV:   7    -0.168055944634E+03    0.28047E-03   -0.21929E-03  1080   0.387E-01    0.807E-02
DAV:   8    -0.168055893614E+03    0.51020E-04   -0.39964E-04   968   0.137E-01    0.360E-02
DAV:   9    -0.168055892988E+03    0.62583E-06   -0.11612E-04   904   0.748E-02    0.226E-02
DAV:  10    -0.168055886611E+03    0.63766E-05   -0.28899E-05   488   0.489E-02
  31 F= -.16805589E+03 E0= -.16799211E+03  d E =-.363929E+00
       N       E                     dE             d eps       ncg     rms          rms(c)
DAV:   1    -0.168057206424E+03   -0.13134E-02   -0.10392E-01   544   0.105E+00    0.120E-01
DAV:   2    -0.168059290404E+03   -0.20840E-02   -0.17566E-02   896   0.897E-01    0.426E-01
DAV:   3    -0.168057292828E+03    0.19976E-02   -0.11550E-02   968   0.734E-01    0.690E-02
DAV:   4    -0.168057356902E+03   -0.64075E-04   -0.13549E-03   960   0.235E-01    0.107E-01
DAV:   5    -0.168057236253E+03    0.12065E-03   -0.95273E-04  1040   0.215E-01    0.503E-02
DAV:   6    -0.168057233572E+03    0.26813E-05   -0.26835E-04  1072   0.132E-01    0.425E-02
DAV:   7    -0.168057218145E+03    0.15427E-04   -0.77639E-05   768   0.877E-02    0.182E-02
DAV:   8    -0.168057216749E+03    0.13959E-05   -0.35783E-05   500   0.486E-02
  32 F= -.16805722E+03 E0= -.16799375E+03  d E =-.133014E-02
       N       E                     dE             d eps       ncg     rms          rms(c)
DAV:   1    -0.168058047193E+03   -0.82905E-03   -0.30487E-01   544   0.181E+00    0.207E-01
DAV:   2    -0.168064295109E+03   -0.62479E-02   -0.52485E-02   904   0.156E+00    0.730E-01
DAV:   3    -0.168058305615E+03    0.59895E-02   -0.34823E-02   976   0.129E+00    0.123E-01
DAV:   4    -0.168058486508E+03   -0.18089E-03   -0.41371E-03   952   0.409E-01    0.180E-01
DAV:   5    -0.168058171706E+03    0.31480E-03   -0.28474E-03  1072   0.375E-01    0.105E-01
DAV:   6    -0.168058133613E+03    0.38092E-04   -0.90106E-04  1080   0.249E-01    0.714E-02
DAV:   7    -0.168058098347E+03    0.35266E-04   -0.27963E-04  1056   0.150E-01    0.360E-02
DAV:   8    -0.168058090338E+03    0.80090E-05   -0.14600E-04   848   0.822E-02    0.201E-02
DAV:   9    -0.168058087506E+03    0.28323E-05   -0.27548E-05   488   0.474E-02
  33 F= -.16805809E+03 E0= -.16799502E+03  d E =-.220089E-02
       N       E                     dE             d eps       ncg     rms          rms(c)
DAV:   1    -0.168060213864E+03   -0.21235E-02   -0.16561E-03   600   0.277E-01    0.774E-02
DAV:   2    -0.168061154990E+03   -0.94113E-03   -0.61118E-03  1088   0.688E-01    0.382E-01
DAV:   3    -0.168060169124E+03    0.98587E-03   -0.47103E-03  1088   0.573E-01    0.266E-02
DAV:   4    -0.168060188244E+03   -0.19119E-04   -0.26984E-04   856   0.113E-01    0.311E-02
DAV:   5    -0.168060178561E+03    0.96827E-05   -0.83105E-05   720   0.693E-02
  34 F= -.16806018E+03 E0= -.16799706E+03  d E =-.209105E-02
       N       E                     dE             d eps       ncg     rms          rms(c)
DAV:   1    -0.168066626744E+03   -0.64385E-02   -0.14664E-02   576   0.818E-01    0.239E-01
DAV:   2    -0.168075963390E+03   -0.93366E-02   -0.59961E-02  1088   0.214E+00    0.120E+00
DAV:   3    -0.168066196476E+03    0.97669E-02   -0.46094E-02  1088   0.179E+00    0.798E-02
DAV:   4    -0.168066395681E+03   -0.19920E-03   -0.25992E-03   848   0.344E-01    0.961E-02
DAV:   5    -0.168066312382E+03    0.83298E-04   -0.80735E-04   864   0.209E-01    0.556E-02
DAV:   6    -0.168066304132E+03    0.82501E-05   -0.19368E-04   992   0.977E-02    0.382E-02
DAV:   7    -0.168066288053E+03    0.16080E-04   -0.80505E-05   672   0.641E-02    0.131E-02
DAV:   8    -0.168066287482E+03    0.57062E-06   -0.18481E-05   392   0.319E-02
  35 F= -.16806629E+03 E0= -.16800301E+03  d E =-.819998E-02
       N       E                     dE             d eps       ncg     rms          rms(c)
DAV:   1    -0.168079013676E+03   -0.12726E-01   -0.58506E-02   560   0.164E+00    0.462E-01
DAV:   2    -0.168112958779E+03   -0.33945E-01   -0.21845E-01  1088   0.411E+00    0.229E+00
DAV:   3    -0.168077494947E+03    0.35464E-01   -0.16763E-01  1088   0.341E+00    0.161E-01
DAV:   4    -0.168078220711E+03   -0.72576E-03   -0.96574E-03   856   0.668E-01    0.188E-01
DAV:   5    -0.168077901089E+03    0.31962E-03   -0.31552E-03   888   0.411E-01    0.107E-01
DAV:   6    -0.168077893643E+03    0.74461E-05   -0.95992E-04   976   0.214E-01    0.854E-02
DAV:   7    -0.168077817773E+03    0.75870E-04   -0.46472E-04   888   0.149E-01    0.314E-02
DAV:   8    -0.168077814744E+03    0.30290E-05   -0.98020E-05   776   0.626E-02
  36 F= -.16807781E+03 E0= -.16801418E+03  d E =-.197272E-01
       N       E                     dE             d eps       ncg     rms          rms(c)
DAV:   1    -0.168102835745E+03   -0.25018E-01   -0.23511E-01   560   0.328E+00    0.923E-01
DAV:   2    -0.168240289950E+03   -0.13745E+00   -0.88305E-01  1088   0.822E+00    0.462E+00
DAV:   3    -0.168096789627E+03    0.14350E+00   -0.67184E-01  1088   0.677E+00    0.332E-01
DAV:   4    -0.168099684875E+03   -0.28952E-02   -0.39037E-02   880   0.132E+00    0.373E-01
DAV:   5    -0.168098412995E+03    0.12719E-02   -0.12764E-02   904   0.808E-01    0.207E-01
DAV:   6    -0.168098407494E+03    0.55007E-05   -0.40818E-03   944   0.440E-01    0.173E-01
DAV:   7    -0.168098096318E+03    0.31118E-03   -0.19169E-03   880   0.303E-01    0.663E-02
DAV:   8    -0.168098081387E+03    0.14931E-04   -0.42330E-04   904   0.127E-01    0.419E-02
DAV:   9    -0.168098065281E+03    0.16105E-04   -0.12170E-04   800   0.759E-02    0.267E-02
DAV:  10    -0.168098061046E+03    0.42354E-05   -0.28943E-05   464   0.495E-02
  37 F= -.16809806E+03 E0= -.16803376E+03  d E =-.399735E-01
       N       E                     dE             d eps       ncg     rms          rms(c)
DAV:   1    -0.168146558213E+03   -0.48493E-01   -0.94123E-01   560   0.655E+00    0.185E+00
DAV:   2    -0.168711565934E+03   -0.56501E+00   -0.36295E+00  1088   0.164E+01    0.939E+00
DAV:   3    -0.168122162745E+03    0.58940E+00   -0.27328E+00  1088   0.133E+01    0.711E-01
DAV:   4    -0.168133848025E+03   -0.11685E-01   -0.16258E-01   888   0.260E+00    0.736E-01
DAV:   5    -0.168128834494E+03    0.50135E-02   -0.50770E-02   904   0.157E+00    0.383E-01
DAV:   6    -0.168128962201E+03   -0.12771E-03   -0.17039E-02   920   0.905E-01    0.343E-01
DAV:   7    -0.168127742437E+03    0.12198E-02   -0.76231E-03   872   0.600E-01    0.142E-01
DAV:   8    -0.168127657417E+03    0.85020E-04   -0.17601E-03   904   0.258E-01    0.879E-02
DAV:   9    -0.168127607995E+03    0.49422E-04   -0.58558E-04   912   0.163E-01    0.627E-02
DAV:  10    -0.168127587504E+03    0.20490E-04   -0.25725E-04   888   0.109E-01    0.400E-02
DAV:  11    -0.168127577466E+03    0.10039E-04   -0.46509E-05   632   0.535E-02    0.127E-02
DAV:  12    -0.168127580192E+03   -0.27259E-05   -0.18661E-05   368   0.282E-02
  38 F= -.16812758E+03 E0= -.16806186E+03  d E =-.694927E-01
       N       E                     dE             d eps       ncg     rms          rms(c)
DAV:   1    -0.168220425383E+03   -0.92848E-01   -0.37943E+00   552   0.131E+01    0.369E+00
DAV:   2    -0.170548929758E+03   -0.23285E+01   -0.15189E+01  1072   0.328E+01    0.188E+01
DAV:   3    -0.168112936014E+03    0.24360E+01   -0.10556E+01  1088   0.251E+01    0.155E+00
DAV:   4    -0.168169690014E+03   -0.56754E-01   -0.76851E-01   912   0.516E+00    0.152E+00
DAV:   5    -0.168148017579E+03    0.21672E-01   -0.22631E-01   904   0.324E+00    0.677E-01
DAV:   6    -0.168149401327E+03   -0.13837E-02   -0.71336E-02   896   0.184E+00    0.679E-01
DAV:   7    -0.168144461318E+03    0.49400E-02   -0.30079E-02   904   0.119E+00    0.306E-01
DAV:   8    -0.168144109576E+03    0.35174E-03   -0.73997E-03   896   0.528E-01    0.215E-01
DAV:   9    -0.168143858864E+03    0.25071E-03   -0.32224E-03   888   0.379E-01    0.144E-01
DAV:  10    -0.168143732558E+03    0.12631E-03   -0.14660E-03   896   0.254E-01    0.803E-02
DAV:  11    -0.168143690064E+03    0.42494E-04   -0.31163E-04   872   0.120E-01    0.271E-02
DAV:  12    -0.168143695465E+03   -0.54007E-05   -0.97686E-05   800   0.650E-02
  39 F= -.16814370E+03 E0= -.16807508E+03  d E =-.856080E-01
       N       E                     dE             d eps       ncg     rms          rms(c)
DAV:   1    -0.168148357381E+03   -0.46673E-02   -0.16350E-01   552   0.270E+00    0.779E-01
DAV:   2    -0.168249660518E+03   -0.10130E+00   -0.65609E-01  1088   0.691E+00    0.400E+00
DAV:   3    -0.168143822012E+03    0.10584E+00   -0.53017E-01  1088   0.586E+00    0.238E-01
DAV:   4    -0.168146265589E+03   -0.24436E-02   -0.31156E-02   840   0.117E+00    0.352E-01
DAV:   5    -0.168145258290E+03    0.10073E-02   -0.95861E-03   896   0.696E-01    0.194E-01
DAV:   6    -0.168145052644E+03    0.20565E-03   -0.13841E-03  1056   0.282E-01    0.987E-02
DAV:   7    -0.168145000934E+03    0.51709E-04   -0.49462E-04   944   0.134E-01    0.359E-02
DAV:   8    -0.168145004147E+03   -0.32130E-05   -0.16662E-04   896   0.879E-02    0.349E-02
DAV:   9    -0.168144993230E+03    0.10918E-04   -0.78481E-05   704   0.676E-02    0.205E-02
DAV:  10    -0.168144992550E+03    0.67992E-06   -0.22413E-05   376   0.400E-02
  40 F= -.16814499E+03 E0= -.16807706E+03  d E =-.869050E-01
       N       E                     dE             d eps       ncg     rms          rms(c)
DAV:   1    -0.168159304049E+03   -0.14311E-01   -0.25788E-01   544   0.199E+00    0.381E-01
DAV:   2    -0.168189885784E+03   -0.30582E-01   -0.23112E-01  1072   0.354E+00    0.205E+00
DAV:   3    -0.168158390362E+03    0.31495E-01   -0.16540E-01  1080   0.292E+00    0.171E-01
DAV:   4    -0.168158712349E+03   -0.32199E-03   -0.73171E-03   856   0.636E-01    0.131E-01
DAV:   5    -0.168158565943E+03    0.14641E-03   -0.18031E-03   936   0.342E-01    0.814E-02
DAV:   6    -0.168158615471E+03   -0.49528E-04   -0.11243E-03   976   0.229E-01    0.103E-01
DAV:   7    -0.168158512002E+03    0.10347E-03   -0.71549E-04   880   0.163E-01    0.292E-02
DAV:   8    -0.168158518712E+03   -0.67101E-05   -0.16090E-04   840   0.802E-02    0.323E-02
DAV:   9    -0.168158507114E+03    0.11599E-04   -0.82003E-05   712   0.656E-02    0.827E-03
DAV:  10    -0.168158506777E+03    0.33708E-06   -0.72555E-06   324   0.229E-02
  41 F= -.16815851E+03 E0= -.16809014E+03  d E =-.135142E-01
       N       E                     dE             d eps       ncg     rms          rms(c)
DAV:   1    -0.168201686605E+03   -0.43179E-01   -0.23094E+00   544   0.592E+00    0.115E+00
DAV:   2    -0.168466856959E+03   -0.26517E+00   -0.20722E+00  1072   0.106E+01    0.592E+00
DAV:   3    -0.168194128728E+03    0.27273E+00   -0.13661E+00  1064   0.866E+00    0.617E-01
DAV:   4    -0.168195497347E+03   -0.13686E-02   -0.66230E-02   856   0.198E+00    0.325E-01
DAV:   5    -0.168195220305E+03    0.27704E-03   -0.14809E-02   888   0.940E-01    0.289E-01
DAV:   6    -0.168194900695E+03    0.31961E-03   -0.13011E-02   888   0.681E-01    0.257E-01
DAV:   7    -0.168194386605E+03    0.51409E-03   -0.39105E-03   992   0.398E-01    0.918E-02
DAV:   8    -0.168194378635E+03    0.79698E-05   -0.12190E-03   976   0.242E-01    0.846E-02
DAV:   9    -0.168194317507E+03    0.61128E-04   -0.52579E-04   888   0.163E-01    0.322E-02
DAV:  10    -0.168194308400E+03    0.91066E-05   -0.13941E-04   832   0.751E-02    0.175E-02
DAV:  11    -0.168194307699E+03    0.70139E-06   -0.29302E-05   504   0.427E-02
  42 F= -.16819431E+03 E0= -.16812462E+03  d E =-.493151E-01
       N       E                     dE             d eps       ncg     rms          rms(c)
DAV:   1    -0.168273457828E+03   -0.79149E-01   -0.91938E+00   544   0.117E+01    0.226E+00
DAV:   2    -0.169233980400E+03   -0.96052E+00   -0.80082E+00  1072   0.210E+01    0.110E+01
DAV:   3    -0.168254417538E+03    0.97956E+00   -0.48827E+00  1080   0.170E+01    0.163E+00
DAV:   4    -0.168247174519E+03    0.72430E-02   -0.29781E-01   880   0.424E+00    0.592E-01
DAV:   5    -0.168251408080E+03   -0.42336E-02   -0.75809E-02   896   0.184E+00    0.833E-01
DAV:   6    -0.168245305106E+03    0.61030E-02   -0.68868E-02   912   0.164E+00    0.373E-01
DAV:   7    -0.168244893995E+03    0.41111E-03   -0.99356E-03   920   0.712E-01    0.256E-01
DAV:   8    -0.168244284795E+03    0.60920E-03   -0.61122E-03   904   0.543E-01    0.125E-01
DAV:   9    -0.168244326312E+03   -0.41517E-04   -0.19094E-03   848   0.294E-01    0.126E-01
DAV:  10    -0.168244161323E+03    0.16499E-03   -0.99460E-04   920   0.201E-01    0.273E-02
DAV:  11    -0.168244164459E+03   -0.31360E-05   -0.15037E-04   808   0.849E-02    0.293E-02
DAV:  12    -0.168244155063E+03    0.93967E-05   -0.60019E-05   680   0.611E-02
  43 F= -.16824416E+03 E0= -.16817178E+03  d E =-.991625E-01
       N       E                     dE             d eps       ncg     rms          rms(c)
DAV:   1    -0.168365749211E+03   -0.12158E+00   -0.36428E+01   544   0.228E+01    0.438E+00
DAV:   2    -0.171545405595E+03   -0.31797E+01   -0.28590E+01  1080   0.406E+01    0.197E+01
DAV:   3    -0.168353465595E+03    0.31919E+01   -0.15793E+01  1064   0.321E+01    0.425E+00
DAV:   4    -0.168265529429E+03    0.87936E-01   -0.15546E+00   880   0.934E+00    0.138E+00
DAV:   5    -0.168299413128E+03   -0.33884E-01   -0.45325E-01   984   0.427E+00    0.213E+00
DAV:   6    -0.168256234805E+03    0.43178E-01   -0.34945E-01   944   0.382E+00    0.643E-01
DAV:   7    -0.168260688546E+03   -0.44537E-02   -0.73396E-02   896   0.178E+00    0.799E-01
DAV:   8    -0.168254198152E+03    0.64904E-02   -0.44720E-02   896   0.143E+00    0.289E-01
DAV:   9    -0.168256056047E+03   -0.18579E-02   -0.19321E-02  1056   0.989E-01    0.472E-01
DAV:  10    -0.168253867938E+03    0.21881E-02   -0.11489E-02   944   0.725E-01    0.147E-01
DAV:  11    -0.168253839127E+03    0.28811E-04   -0.16042E-03   872   0.241E-01    0.973E-02
DAV:  12    -0.168253776771E+03    0.62357E-04   -0.60086E-04  1048   0.165E-01    0.263E-02
DAV:  13    -0.168253770042E+03    0.67291E-05   -0.42428E-05   592   0.553E-02
  44 F= -.16825377E+03 E0= -.16817749E+03  d E =-.108777E+00
       N       E                     dE             d eps       ncg     rms          rms(c)
DAV:   1    -0.168282126553E+03   -0.28350E-01   -0.69477E+00   544   0.106E+01    0.182E+00
DAV:   2    -0.168907628347E+03   -0.62550E+00   -0.51125E+00  1048   0.168E+01    0.965E+00
DAV:   3    -0.168262703917E+03    0.64492E+00   -0.40118E+00  1080   0.142E+01    0.994E-01
DAV:   4    -0.168270269508E+03   -0.75656E-02   -0.18731E-01   880   0.330E+00    0.647E-01
DAV:   5    -0.168266794380E+03    0.34751E-02   -0.45728E-02   920   0.183E+00    0.473E-01
DAV:   6    -0.168267760369E+03   -0.96599E-03   -0.34360E-02   952   0.123E+00    0.552E-01
DAV:   7    -0.168265101379E+03    0.26590E-02   -0.20601E-02   856   0.870E-01    0.231E-01
DAV:   8    -0.168265066465E+03    0.34914E-04   -0.51729E-03   920   0.461E-01    0.205E-01
DAV:   9    -0.168264775826E+03    0.29064E-03   -0.19439E-03   944   0.308E-01    0.710E-02
DAV:  10    -0.168264755402E+03    0.20425E-04   -0.54448E-04   920   0.148E-01    0.400E-02
DAV:  11    -0.168264743466E+03    0.11935E-04   -0.97060E-05   728   0.778E-02    0.219E-02
DAV:  12    -0.168264741415E+03    0.20513E-05   -0.28288E-05   512   0.463E-02
  45 F= -.16826474E+03 E0= -.16818986E+03  d E =-.119749E+00
       N       E                     dE             d eps       ncg     rms          rms(c)
DAV:   1    -0.168298376957E+03   -0.33633E-01   -0.14854E+00   544   0.388E+00    0.490E-01
DAV:   2    -0.168348632903E+03   -0.50256E-01   -0.43961E-01   992   0.446E+00    0.224E+00
DAV:   3    -0.168297431709E+03    0.51201E-01   -0.30225E-01   960   0.377E+00    0.284E-01
DAV:   4    -0.168298887805E+03   -0.14561E-02   -0.27990E-02   888   0.110E+00    0.248E-01
DAV:   5    -0.168298264146E+03    0.62366E-03   -0.50284E-03   896   0.518E-01    0.136E-01
DAV:   6    -0.168298290451E+03   -0.26305E-04   -0.39940E-03  1056   0.426E-01    0.163E-01
DAV:   7    -0.168298073354E+03    0.21710E-03   -0.15603E-03  1088   0.260E-01    0.594E-02
DAV:   8    -0.168298050384E+03    0.22970E-04   -0.46114E-04   888   0.134E-01    0.365E-02
DAV:   9    -0.168298056657E+03   -0.62730E-05   -0.19708E-04  1072   0.104E-01    0.489E-02
DAV:  10    -0.168298035771E+03    0.20885E-04   -0.12002E-04   920   0.809E-02    0.931E-03
DAV:  11    -0.168298035827E+03   -0.56024E-07   -0.11047E-05   352   0.336E-02
  46 F= -.16829804E+03 E0= -.16822233E+03  d E =-.332944E-01
       N       E                     dE             d eps       ncg     rms          rms(c)
DAV:   1    -0.168408025467E+03   -0.10999E+00   -0.13350E+01   544   0.116E+01    0.144E+00
DAV:   2    -0.168842282469E+03   -0.43426E+00   -0.38236E+00   936   0.130E+01    0.660E+00
DAV:   3    -0.168402548293E+03    0.43973E+00   -0.28053E+00   904   0.114E+01    0.104E+00
DAV:   4    -0.168411937322E+03   -0.93890E-02   -0.27345E-01   896   0.333E+00    0.626E-01
DAV:   5    -0.168412755666E+03   -0.81834E-03   -0.57311E-02  1088   0.173E+00    0.813E-01
DAV:   6    -0.168407615347E+03    0.51403E-02   -0.48593E-02  1088   0.180E+00    0.396E-01
DAV:   7    -0.168408269468E+03   -0.65412E-03   -0.21033E-02  1080   0.110E+00    0.429E-01
DAV:   8    -0.168406466052E+03    0.18034E-02   -0.12635E-02   976   0.773E-01    0.109E-01
DAV:   9    -0.168406477180E+03   -0.11128E-04   -0.19135E-03   896   0.294E-01    0.950E-02
DAV:  10    -0.168406432501E+03    0.44679E-04   -0.92375E-04   888   0.192E-01    0.650E-02
DAV:  11    -0.168406387709E+03    0.44792E-04   -0.36143E-04   912   0.136E-01    0.220E-02
DAV:  12    -0.168406382986E+03    0.47233E-05   -0.23259E-05   464   0.392E-02
  47 F= -.16840638E+03 E0= -.16832889E+03  d E =-.141642E+00
       N       E                     dE             d eps       ncg     rms          rms(c)
DAV:   1    -0.168597117829E+03   -0.19073E+00   -0.53390E+01   544   0.236E+01    0.283E+00
DAV:   2    -0.170212559256E+03   -0.16154E+01   -0.14665E+01   944   0.252E+01    0.127E+01
DAV:   3    -0.168626069812E+03    0.15865E+01   -0.10649E+01   860   0.233E+01    0.266E+00
DAV:   4    -0.168627619192E+03   -0.15494E-02   -0.12184E+00   896   0.697E+00    0.122E+00
DAV:   5    -0.168639728059E+03   -0.12109E-01   -0.28632E-01  1088   0.385E+00    0.177E+00
DAV:   6    -0.168612544545E+03    0.27184E-01   -0.19958E-01  1088   0.375E+00    0.797E-01
DAV:   7    -0.168615347253E+03   -0.28027E-02   -0.96364E-02  1064   0.247E+00    0.890E-01
DAV:   8    -0.168607874419E+03    0.74728E-02   -0.59617E-02  1016   0.173E+00    0.315E-01
DAV:   9    -0.168607303978E+03    0.57044E-03   -0.75564E-03   896   0.589E-01    0.175E-01
DAV:  10    -0.168607179997E+03    0.12398E-03   -0.29111E-03   896   0.339E-01    0.141E-01
DAV:  11    -0.168607026995E+03    0.15300E-03   -0.17504E-03   984   0.277E-01    0.554E-02
DAV:  12    -0.168607007023E+03    0.19972E-04   -0.21013E-04   960   0.107E-01    0.169E-02
DAV:  13    -0.168607004544E+03    0.24794E-05   -0.81546E-06   432   0.247E-02
  48 F= -.16860700E+03 E0= -.16853255E+03  d E =-.342263E+00
       N       E                     dE             d eps       ncg     rms          rms(c)
DAV:   1    -0.168528347378E+03    0.78660E-01   -0.21938E+02   564   0.519E+01    0.579E+00
DAV:   2    -0.174650672682E+03   -0.61223E+01   -0.56223E+01   992   0.516E+01    0.244E+01
DAV:   3    -0.168968832785E+03    0.56818E+01   -0.38961E+01   896   0.460E+01    0.638E+00
DAV:   4    -0.168745034325E+03    0.22380E+00   -0.52891E+00   908   0.146E+01    0.217E+00
DAV:   5    -0.168793301048E+03   -0.48267E-01   -0.10101E+00   992   0.680E+00    0.303E+00
DAV:   6    -0.168695497454E+03    0.97804E-01   -0.71549E-01  1056   0.665E+00    0.131E+00
DAV:   7    -0.168736401579E+03   -0.40904E-01   -0.47591E-01  1080   0.499E+00    0.256E+00
DAV:   8    -0.168678235418E+03    0.58166E-01   -0.35595E-01  1080   0.435E+00    0.486E-01
DAV:   9    -0.168677640123E+03    0.59530E-03   -0.39085E-02   888   0.126E+00    0.334E-01
DAV:  10    -0.168677104571E+03    0.53555E-03   -0.11472E-02   976   0.758E-01    0.255E-01
DAV:  11    -0.168676697995E+03    0.40658E-03   -0.59954E-03  1056   0.531E-01    0.141E-01
DAV:  12    -0.168676572913E+03    0.12508E-03   -0.12242E-03  1056   0.251E-01    0.418E-02
DAV:  13    -0.168676560802E+03    0.12111E-04   -0.11443E-04   792   0.697E-02    0.178E-02
DAV:  14    -0.168676557823E+03    0.29789E-05   -0.87364E-06   392   0.293E-02
  49 F= -.16867656E+03 E0= -.16859429E+03  d E =-.411816E+00
       N       E                     dE             d eps       ncg     rms          rms(c)
DAV:   1    -0.168678456988E+03   -0.18962E-02   -0.36283E+01   544   0.201E+01    0.248E+00
DAV:   2    -0.170066126744E+03   -0.13877E+01   -0.11062E+01  1072   0.244E+01    0.127E+01
DAV:   3    -0.168719413055E+03    0.13467E+01   -0.77006E+00  1088   0.195E+01    0.169E+00
DAV:   4    -0.168721960069E+03   -0.25470E-02   -0.47182E-01   976   0.540E+00    0.116E+00
DAV:   5    -0.168712473259E+03    0.94868E-02   -0.12552E-01   944   0.289E+00    0.750E-01
DAV:   6    -0.168710338321E+03    0.21349E-02   -0.11827E-01   920   0.222E+00    0.729E-01
DAV:   7    -0.168706328993E+03    0.40093E-02   -0.43077E-02  1056   0.141E+00    0.462E-01
DAV:   8    -0.168704472413E+03    0.18566E-02   -0.16430E-02  1040   0.833E-01    0.150E-01
DAV:   9    -0.168704996165E+03   -0.52375E-03   -0.69027E-03   904   0.520E-01    0.264E-01
DAV:  10    -0.168704296102E+03    0.70006E-03   -0.40548E-03   896   0.422E-01    0.530E-02
DAV:  11    -0.168704294115E+03    0.19871E-05   -0.45140E-04   904   0.131E-01    0.422E-02
DAV:  12    -0.168704285460E+03    0.86552E-05   -0.10154E-04   776   0.773E-02    0.149E-02
DAV:  13    -0.168704284153E+03    0.13070E-05   -0.11166E-05   400   0.318E-02
  50 F= -.16870428E+03 E0= -.16862073E+03  d E =-.439543E+00
       N       E                     dE             d eps       ncg     rms          rms(c)
DAV:   1    -0.168772300652E+03   -0.68015E-01   -0.53895E+00   544   0.837E+00    0.129E+00
DAV:   2    -0.169070347763E+03   -0.29805E+00   -0.23881E+00  1056   0.124E+01    0.659E+00
DAV:   3    -0.168773510593E+03    0.29684E+00   -0.16245E+00  1088   0.102E+01    0.568E-01
DAV:   4    -0.168779579250E+03   -0.60687E-02   -0.10541E-01   840   0.222E+00    0.610E-01
DAV:   5    -0.168777401137E+03    0.21781E-02   -0.28394E-02   864   0.114E+00    0.389E-01
DAV:   6    -0.168777698565E+03   -0.29743E-03   -0.18102E-02   968   0.933E-01    0.418E-01
DAV:   7    -0.168776235339E+03    0.14632E-02   -0.12285E-02  1080   0.755E-01    0.197E-01
DAV:   8    -0.168776123118E+03    0.11222E-03   -0.52142E-03   880   0.451E-01    0.162E-01
DAV:   9    -0.168775895076E+03    0.22804E-03   -0.13750E-03   904   0.260E-01    0.399E-02
DAV:  10    -0.168775887462E+03    0.76148E-05   -0.33248E-04   904   0.111E-01    0.313E-02
DAV:  11    -0.168775879493E+03    0.79686E-05   -0.39500E-05   576   0.507E-02
  51 F= -.16877588E+03 E0= -.16869352E+03  d E =-.715953E-01
       N       E                     dE             d eps       ncg     rms          rms(c)
DAV:   1    -0.168882206509E+03   -0.10632E+00   -0.48724E+01   544   0.247E+01    0.390E+00
DAV:   2    -0.171590650889E+03   -0.27084E+01   -0.21008E+01  1072   0.376E+01    0.199E+01
DAV:   3    -0.168895386505E+03    0.26953E+01   -0.14183E+01  1080   0.309E+01    0.237E+00
DAV:   4    -0.168950719193E+03   -0.55333E-01   -0.12825E+00   888   0.732E+00    0.191E+00
DAV:   5    -0.168934684157E+03    0.16035E-01   -0.23390E-01   896   0.352E+00    0.138E+00
DAV:   6    -0.168932026550E+03    0.26576E-02   -0.21424E-01   848   0.272E+00    0.124E+00
DAV:   7    -0.168925328444E+03    0.66981E-02   -0.12862E-01   976   0.249E+00    0.875E-01
DAV:   8    -0.168917592925E+03    0.77355E-02   -0.81368E-02   992   0.192E+00    0.443E-01
DAV:   9    -0.168917397624E+03    0.19530E-03   -0.14235E-02  1040   0.882E-01    0.350E-01
DAV:  10    -0.168916228590E+03    0.11690E-02   -0.80114E-03   876   0.613E-01    0.609E-02
DAV:  11    -0.168916237930E+03   -0.93396E-05   -0.46586E-04   840   0.145E-01    0.226E-02
DAV:  12    -0.168916237667E+03    0.26269E-06   -0.54563E-05   640   0.483E-02
  52 F= -.16891624E+03 E0= -.16883471E+03  d E =-.211954E+00
       N       E                     dE             d eps       ncg     rms          rms(c)
DAV:   1    -0.168701284298E+03    0.21495E+00   -0.20195E+02   576   0.511E+01    0.814E+00
DAV:   2    -0.178846006173E+03   -0.10145E+02   -0.85653E+01  1072   0.757E+01    0.355E+01
DAV:   3    -0.168666518483E+03    0.10179E+02   -0.51167E+01  1048   0.565E+01    0.559E+00
DAV:   4    -0.169032200044E+03   -0.36568E+00   -0.62495E+00   896   0.149E+01    0.446E+00
DAV:   5    -0.168901635988E+03    0.13056E+00   -0.11220E+00   864   0.678E+00    0.281E+00
DAV:   6    -0.168897816478E+03    0.38195E-02   -0.79051E-01   976   0.628E+00    0.234E+00
DAV:   7    -0.168854841298E+03    0.42975E-01   -0.52267E-01  1088   0.569E+00    0.172E+00
DAV:   8    -0.168851607206E+03    0.32341E-02   -0.18342E-01   888   0.289E+00    0.162E+00
DAV:   9    -0.168834432976E+03    0.17174E-01   -0.83846E-02   960   0.196E+00    0.668E-01
DAV:  10    -0.168833883745E+03    0.54923E-03   -0.18748E-02  1008   0.955E-01    0.427E-01
DAV:  11    -0.168832465184E+03    0.14186E-02   -0.12115E-02  1048   0.737E-01    0.878E-02
DAV:  12    -0.168832573787E+03   -0.10860E-03   -0.17253E-03   968   0.326E-01    0.123E-01
DAV:  13    -0.168832474867E+03    0.98920E-04   -0.50509E-04   872   0.166E-01    0.649E-02
DAV:  14    -0.168832450437E+03    0.24430E-04   -0.12040E-04   936   0.785E-02    0.170E-02
DAV:  15    -0.168832446719E+03    0.37182E-05   -0.13849E-05   400   0.301E-02
  53 F= -.16883245E+03 E0= -.16876761E+03  d E =-.128163E+00
       N       E                     dE             d eps       ncg     rms          rms(c)
DAV:   1    -0.168793118703E+03    0.39332E-01   -0.13863E+02   552   0.480E+01    0.728E+00
DAV:   2    -0.179749434419E+03   -0.10956E+02   -0.86940E+01  1024   0.716E+01    0.412E+01
DAV:   3    -0.168800867961E+03    0.10949E+02   -0.58230E+01  1080   0.508E+01    0.344E+00
DAV:   4    -0.169066058776E+03   -0.26519E+00   -0.41892E+00   904   0.129E+01    0.343E+00
DAV:   5    -0.168981807451E+03    0.84251E-01   -0.65777E-01   888   0.703E+00    0.154E+00
DAV:   6    -0.169012589105E+03   -0.30782E-01   -0.49316E-01   896   0.443E+00    0.253E+00
DAV:   7    -0.168958132981E+03    0.54456E-01   -0.39247E-01   880   0.404E+00    0.960E-01
DAV:   8    -0.168962237088E+03   -0.41041E-02   -0.14600E-01   904   0.262E+00    0.109E+00
DAV:   9    -0.168952912864E+03    0.93242E-02   -0.48967E-02   856   0.150E+00    0.518E-01
DAV:  10    -0.168951492591E+03    0.14203E-02   -0.10073E-02   904   0.682E-01    0.331E-01
DAV:  11    -0.168950716755E+03    0.77584E-03   -0.61947E-03   936   0.544E-01    0.108E-01
DAV:  12    -0.168950773289E+03   -0.56534E-04   -0.16794E-03   852   0.286E-01    0.101E-01
DAV:  13    -0.168950666643E+03    0.10665E-03   -0.75983E-04   904   0.179E-01    0.222E-02
DAV:  14    -0.168950671918E+03   -0.52756E-05   -0.60559E-05   712   0.509E-02
  54 F= -.16895067E+03 E0= -.16886878E+03  d E =-.246388E+00
       N       E                     dE             d eps       ncg     rms          rms(c)
DAV:   1    -0.168965965064E+03   -0.15298E-01   -0.32611E+01   544   0.202E+01    0.305E+00
DAV:   2    -0.170558412484E+03   -0.15924E+01   -0.13272E+01  1056   0.293E+01    0.153E+01
DAV:   3    -0.168979942050E+03    0.15785E+01   -0.84951E+00  1080   0.245E+01    0.181E+00
DAV:   4    -0.169013599472E+03   -0.33657E-01   -0.64301E-01   888   0.546E+00    0.146E+00
DAV:   5    -0.169004695787E+03    0.89037E-02   -0.14145E-01   856   0.244E+00    0.110E+00
DAV:   6    -0.169001104660E+03    0.35911E-02   -0.13582E-01   888   0.234E+00    0.862E-01
DAV:   7    -0.168993520127E+03    0.75845E-02   -0.51889E-02  1088   0.182E+00    0.409E-01
DAV:   8    -0.168993404534E+03    0.11559E-03   -0.16202E-02   960   0.897E-01    0.369E-01
DAV:   9    -0.168992203174E+03    0.12014E-02   -0.85595E-03  1000   0.640E-01    0.624E-02
DAV:  10    -0.168992308321E+03   -0.10515E-03   -0.16546E-03   912   0.280E-01    0.102E-01
DAV:  11    -0.168992187797E+03    0.12052E-03   -0.69096E-04   900   0.198E-01    0.174E-02
DAV:  12    -0.168992192987E+03   -0.51903E-05   -0.97625E-05   808   0.619E-02
  55 F= -.16899219E+03 E0= -.16892263E+03  d E =-.287909E+00
       N       E                     dE             d eps       ncg     rms          rms(c)
DAV:   1    -0.169061939118E+03   -0.69751E-01   -0.14198E+01   544   0.138E+01    0.125E+00
DAV:   2    -0.169324582081E+03   -0.26264E+00   -0.21898E+00  1048   0.111E+01    0.504E+00
DAV:   3    -0.169085815502E+03    0.23877E+00   -0.12412E+00  1056   0.839E+00    0.890E-01
DAV:   4    -0.169085849004E+03   -0.33502E-04   -0.83880E-02   888   0.196E+00    0.639E-01
DAV:   5    -0.169087171452E+03   -0.13224E-02   -0.53265E-02  1080   0.159E+00    0.917E-01
DAV:   6    -0.169082869111E+03    0.43023E-02   -0.57188E-02  1088   0.188E+00    0.560E-01
DAV:   7    -0.169080824690E+03    0.20444E-02   -0.15440E-02  1088   0.974E-01    0.206E-01
DAV:   8    -0.169080438395E+03    0.38630E-03   -0.48609E-03   920   0.472E-01    0.106E-01
DAV:   9    -0.169080456156E+03   -0.17762E-04   -0.14580E-03  1064   0.278E-01    0.931E-02
DAV:  10    -0.169080363851E+03    0.92306E-04   -0.72881E-04   944   0.194E-01    0.285E-02
DAV:  11    -0.169080363122E+03    0.72884E-06   -0.83454E-05   720   0.745E-02
  56 F= -.16908036E+03 E0= -.16901625E+03  d E =-.881701E-01
       N       E                     dE             d eps       ncg     rms          rms(c)
DAV:   1    -0.169089765526E+03   -0.94017E-02   -0.43379E+00   544   0.756E+00    0.675E-01
DAV:   2    -0.169164316238E+03   -0.74551E-01   -0.62968E-01  1024   0.588E+00    0.265E+00
DAV:   3    -0.169097372879E+03    0.66943E-01   -0.37000E-01  1056   0.442E+00    0.532E-01
DAV:   4    -0.169097077890E+03    0.29499E-03   -0.29961E-02   876   0.112E+00    0.419E-01
DAV:   5    -0.169097121748E+03   -0.43858E-04   -0.16384E-02  1088   0.982E-01    0.484E-01
DAV:   6    -0.169095549424E+03    0.15723E-02   -0.17327E-02  1088   0.102E+00    0.244E-01
DAV:   7    -0.169095112525E+03    0.43690E-03   -0.28699E-03  1072   0.391E-01    0.849E-02
DAV:   8    -0.169095078311E+03    0.34214E-04   -0.11172E-03   888   0.212E-01    0.605E-02
DAV:   9    -0.169095048656E+03    0.29655E-04   -0.25643E-04   876   0.114E-01    0.205E-02
DAV:  10    -0.169095043547E+03    0.51094E-05   -0.46033E-05   576   0.532E-02
  57 F= -.16909504E+03 E0= -.16903123E+03  d E =-.102851E+00
       N       E                     dE             d eps       ncg     rms          rms(c)
DAV:   1    -0.169227864197E+03   -0.13282E+00   -0.22966E+00   572   0.732E+00    0.193E+00
DAV:   2    -0.170011612437E+03   -0.78375E+00   -0.60785E+00  1088   0.197E+01    0.109E+01
DAV:   3    -0.169205134239E+03    0.80648E+00   -0.46875E+00  1080   0.154E+01    0.115E+00
DAV:   4    -0.169209042099E+03   -0.39079E-02   -0.18453E-01   840   0.325E+00    0.588E-01
DAV:   5    -0.169210920876E+03   -0.18788E-02   -0.43959E-02   888   0.138E+00    0.616E-01
DAV:   6    -0.169208134576E+03    0.27863E-02   -0.29687E-02   884   0.120E+00    0.318E-01
DAV:   7    -0.169207593057E+03    0.54152E-03   -0.57395E-03   960   0.595E-01    0.196E-01
DAV:   8    -0.169207310968E+03    0.28209E-03   -0.34227E-03   904   0.434E-01    0.125E-01
DAV:   9    -0.169207247043E+03    0.63925E-04   -0.77991E-04   936   0.202E-01    0.634E-02
DAV:  10    -0.169207218379E+03    0.28664E-04   -0.47813E-04   856   0.138E-01    0.360E-02
DAV:  11    -0.169207210159E+03    0.82201E-05   -0.55024E-05   672   0.563E-02
  58 F= -.16920721E+03 E0= -.16914498E+03  d E =-.112167E+00
       N       E                     dE             d eps       ncg     rms          rms(c)
DAV:   1    -0.169596906889E+03   -0.38969E+00   -0.21230E+01   612   0.225E+01    0.557E+00
DAV:   2    -0.176130081955E+03   -0.65332E+01   -0.50603E+01  1080   0.553E+01    0.322E+01
DAV:   3    -0.169442824829E+03    0.66873E+01   -0.34616E+01  1072   0.389E+01    0.486E+00
DAV:   4    -0.169409224985E+03    0.33600E-01   -0.24078E+00   956   0.104E+01    0.167E+00
DAV:   5    -0.169421247117E+03   -0.12022E-01   -0.38099E-01   900   0.428E+00    0.163E+00
DAV:   6    -0.169399784359E+03    0.21463E-01   -0.22917E-01   884   0.322E+00    0.905E-01
DAV:   7    -0.169399306146E+03    0.47821E-03   -0.78244E-02   880   0.184E+00    0.804E-01
DAV:   8    -0.169393132239E+03    0.61739E-02   -0.63243E-02   896   0.158E+00    0.314E-01
DAV:   9    -0.169392741895E+03    0.39034E-03   -0.67912E-03   872   0.527E-01    0.169E-01
DAV:  10    -0.169392506994E+03    0.23490E-03   -0.19351E-03   864   0.310E-01    0.858E-02
DAV:  11    -0.169392476283E+03    0.30711E-04   -0.60364E-04   904   0.170E-01    0.557E-02
DAV:  12    -0.169392468695E+03    0.75881E-05   -0.23545E-04   864   0.129E-01    0.400E-02
DAV:  13    -0.169392460059E+03    0.86356E-05   -0.12150E-04   888   0.767E-02    0.111E-02
DAV:  14    -0.169392459778E+03    0.28155E-06   -0.93660E-06   344   0.305E-02
  59 F= -.16939246E+03 E0= -.16933459E+03  d E =-.297416E+00
       N       E                     dE             d eps       ncg     rms          rms(c)
DAV:   1    -0.169427839989E+03   -0.35380E-01   -0.24896E+00   564   0.756E+00    0.195E+00
DAV:   2    -0.170212415792E+03   -0.78458E+00   -0.60322E+00  1088   0.195E+01    0.111E+01
DAV:   3    -0.169407205598E+03    0.80521E+00   -0.47436E+00  1072   0.153E+01    0.127E+00
DAV:   4    -0.169408407693E+03   -0.12021E-02   -0.20150E-01   856   0.340E+00    0.584E-01
DAV:   5    -0.169409912796E+03   -0.15051E-02   -0.48150E-02   880   0.146E+00    0.569E-01
DAV:   6    -0.169407134547E+03    0.27782E-02   -0.27395E-02   900   0.115E+00    0.296E-01
DAV:   7    -0.169406693517E+03    0.44103E-03   -0.57341E-03   872   0.513E-01    0.189E-01
DAV:   8    -0.169406427601E+03    0.26592E-03   -0.39198E-03   880   0.401E-01    0.107E-01
DAV:   9    -0.169406335173E+03    0.92427E-04   -0.58171E-04   896   0.163E-01    0.313E-02
DAV:  10    -0.169406334939E+03    0.23403E-06   -0.16671E-04   888   0.894E-02    0.276E-02
DAV:  11    -0.169406329487E+03    0.54526E-05   -0.41317E-05   560   0.533E-02
  60 F= -.16940633E+03 E0= -.16934925E+03  d E =-.311286E+00
       N       E                     dE             d eps       ncg     rms          rms(c)
DAV:   1    -0.169600007069E+03   -0.19367E+00   -0.65763E+00   620   0.136E+01    0.367E+00
DAV:   2    -0.171804552724E+03   -0.22045E+01   -0.17000E+01  1088   0.330E+01    0.172E+01
DAV:   3    -0.169474947731E+03    0.23296E+01   -0.12454E+01  1088   0.284E+01    0.135E+00
DAV:   4    -0.169537620916E+03   -0.62673E-01   -0.88634E-01   880   0.643E+00    0.167E+00
DAV:   5    -0.169518742996E+03    0.18878E-01   -0.27015E-01   880   0.378E+00    0.104E+00
DAV:   6    -0.169512915897E+03    0.58271E-02   -0.49359E-02  1088   0.199E+00    0.494E-01
DAV:   7    -0.169510813802E+03    0.21021E-02   -0.22365E-02   928   0.100E+00    0.249E-01
DAV:   8    -0.169510404945E+03    0.40886E-03   -0.35288E-03   888   0.435E-01    0.117E-01
DAV:   9    -0.169510439826E+03   -0.34881E-04   -0.20482E-03   920   0.341E-01    0.121E-01
DAV:  10    -0.169510294138E+03    0.14569E-03   -0.73171E-04  1020   0.211E-01    0.439E-02
DAV:  11    -0.169510291800E+03    0.23374E-05   -0.15366E-04   936   0.763E-02    0.277E-02
DAV:  12    -0.169510286836E+03    0.49638E-05   -0.21589E-05   408   0.492E-02
  61 F= -.16951029E+03 E0= -.16945593E+03  d E =-.103957E+00
       N       E                     dE             d eps       ncg     rms          rms(c)
DAV:   1    -0.169638069383E+03   -0.12778E+00   -0.65307E+00   644   0.136E+01    0.364E+00
DAV:   2    -0.171713751603E+03   -0.20757E+01   -0.16107E+01  1088   0.328E+01    0.167E+01
DAV:   3    -0.169514908770E+03    0.21988E+01   -0.11776E+01  1088   0.282E+01    0.137E+00
DAV:   4    -0.169575603986E+03   -0.60695E-01   -0.85574E-01   880   0.637E+00    0.159E+00
DAV:   5    -0.169558859174E+03    0.16745E-01   -0.26460E-01   872   0.371E+00    0.103E+00
DAV:   6    -0.169552184624E+03    0.66745E-02   -0.45316E-02  1072   0.188E+00    0.452E-01
DAV:   7    -0.169550936549E+03    0.12481E-02   -0.21120E-02  1032   0.970E-01    0.275E-01
DAV:   8    -0.169550596320E+03    0.34023E-03   -0.40610E-03  1000   0.454E-01    0.171E-01
DAV:   9    -0.169550518088E+03    0.78232E-04   -0.34424E-03   872   0.418E-01    0.161E-01
DAV:  10    -0.169550362422E+03    0.15567E-03   -0.10073E-03  1032   0.228E-01    0.698E-02
DAV:  11    -0.169550326005E+03    0.36417E-04   -0.31000E-04   920   0.119E-01    0.367E-02
DAV:  12    -0.169550320233E+03    0.57715E-05   -0.24579E-05   440   0.411E-02
  62 F= -.16955032E+03 E0= -.16949753E+03  d E =-.143991E+00
       N       E                     dE             d eps       ncg     rms          rms(c)
DAV:   1    -0.169551223276E+03   -0.89727E-03   -0.46530E-02   640   0.118E+00    0.302E-01
DAV:   2    -0.169566925023E+03   -0.15702E-01   -0.10967E-01  1088   0.277E+00    0.153E+00
DAV:   3    -0.169550457598E+03    0.16467E-01   -0.86050E-02  1088   0.236E+00    0.105E-01
DAV:   4    -0.169550902263E+03   -0.44467E-03   -0.57382E-03   896   0.507E-01    0.159E-01
DAV:   5    -0.169550711746E+03    0.19052E-03   -0.18524E-03   872   0.292E-01    0.689E-02
DAV:   6    -0.169550719853E+03   -0.81079E-05   -0.54313E-04   880   0.168E-01    0.768E-02
DAV:   7    -0.169550670096E+03    0.49757E-04   -0.26123E-04  1056   0.128E-01    0.163E-02
DAV:   8    -0.169550673238E+03   -0.31417E-05   -0.62337E-05   712   0.508E-02
  63 F= -.16955067E+03 E0= -.16949798E+03  d E =-.144344E+00
       N       E                     dE             d eps       ncg     rms          rms(c)
DAV:   1    -0.169564301972E+03   -0.13632E-01   -0.40896E-01   544   0.214E+00    0.319E-01
DAV:   2    -0.169582220125E+03   -0.17918E-01   -0.14683E-01  1032   0.286E+00    0.136E+00
DAV:   3    -0.169564044588E+03    0.18176E-01   -0.97483E-02  1064   0.232E+00    0.153E-01
DAV:   4    -0.169564386865E+03   -0.34228E-03   -0.54617E-03   984   0.587E-01    0.221E-01
DAV:   5    -0.169564092046E+03    0.29482E-03   -0.39398E-03  1064   0.518E-01    0.129E-01
DAV:   6    -0.169564109847E+03   -0.17801E-04   -0.16847E-03  1032   0.325E-01    0.124E-01
DAV:   7    -0.169563958831E+03    0.15102E-03   -0.10235E-03   888   0.214E-01    0.273E-02
DAV:   8    -0.169563962357E+03   -0.35256E-05   -0.12059E-04   872   0.769E-02    0.248E-02
DAV:   9    -0.169563954568E+03    0.77894E-05   -0.39444E-05   552   0.517E-02
  64 F= -.16956395E+03 E0= -.16951099E+03  d E =-.132813E-01
       N       E                     dE             d eps       ncg     rms          rms(c)
DAV:   1    -0.169596831639E+03   -0.32869E-01   -0.36842E+00   544   0.645E+00    0.924E-01
DAV:   2    -0.169733137697E+03   -0.13631E+00   -0.11820E+00  1000   0.805E+00    0.362E+00
DAV:   3    -0.169595084314E+03    0.13805E+00   -0.71288E-01  1052   0.626E+00    0.476E-01
DAV:   4    -0.169598565812E+03   -0.34815E-02   -0.54147E-02  1024   0.181E+00    0.734E-01
DAV:   5    -0.169595227033E+03    0.33388E-02   -0.38005E-02  1088   0.158E+00    0.367E-01
DAV:   6    -0.169595329695E+03   -0.10266E-03   -0.15835E-02   960   0.946E-01    0.360E-01
DAV:   7    -0.169594131499E+03    0.11982E-02   -0.89917E-03   920   0.633E-01    0.851E-02
DAV:   8    -0.169594146720E+03   -0.15221E-04   -0.12958E-03   896   0.240E-01    0.791E-02
DAV:   9    -0.169594082960E+03    0.63760E-04   -0.39848E-04   920   0.157E-01    0.176E-02
DAV:  10    -0.169594091635E+03   -0.86753E-05   -0.11538E-04   856   0.675E-02    0.294E-02
DAV:  11    -0.169594081844E+03    0.97915E-05   -0.54211E-05   680   0.525E-02
  65 F= -.16959408E+03 E0= -.16954190E+03  d E =-.434086E-01
       N       E                     dE             d eps       ncg     rms          rms(c)
DAV:   1    -0.169605765784E+03   -0.11674E-01   -0.14839E+01   544   0.130E+01    0.175E+00
DAV:   2    -0.170002488804E+03   -0.39672E+00   -0.38862E+00   960   0.146E+01    0.596E+00
DAV:   3    -0.169603310575E+03    0.39918E+00   -0.20892E+00  1044   0.109E+01    0.102E+00
DAV:   4    -0.169615360372E+03   -0.12050E-01   -0.22905E-01  1048   0.371E+00    0.147E+00
DAV:   5    -0.169601336828E+03    0.14024E-01   -0.16069E-01  1088   0.317E+00    0.740E-01
DAV:   6    -0.169600155857E+03    0.11810E-02   -0.66784E-02   952   0.185E+00    0.632E-01
DAV:   7    -0.169596785470E+03    0.33704E-02   -0.30559E-02   928   0.115E+00    0.203E-01
DAV:   8    -0.169596547104E+03    0.23837E-03   -0.55730E-03   888   0.494E-01    0.122E-01
DAV:   9    -0.169596415740E+03    0.13136E-03   -0.10099E-03   968   0.267E-01    0.484E-02
DAV:  10    -0.169596435674E+03   -0.19934E-04   -0.57894E-04   888   0.153E-01    0.595E-02
DAV:  11    -0.169596395728E+03    0.39945E-04   -0.24531E-04   888   0.103E-01    0.129E-02
DAV:  12    -0.169596396493E+03   -0.76499E-06   -0.15765E-05   432   0.388E-02
  66 F= -.16959640E+03 E0= -.16954735E+03  d E =-.457233E-01
       N       E                     dE             d eps       ncg     rms          rms(c)
DAV:   1    -0.169608739473E+03   -0.12344E-01   -0.37209E+00   544   0.640E+00    0.835E-01
DAV:   2    -0.169699695752E+03   -0.90956E-01   -0.87068E-01   900   0.672E+00    0.288E+00
DAV:   3    -0.169606014412E+03    0.93681E-01   -0.53564E-01   924   0.556E+00    0.447E-01
DAV:   4    -0.169611288406E+03   -0.52740E-02   -0.76272E-02   872   0.177E+00    0.659E-01
DAV:   5    -0.169607341987E+03    0.39464E-02   -0.34506E-02  1040   0.144E+00    0.313E-01
DAV:   6    -0.169607809076E+03   -0.46709E-03   -0.17571E-02  1072   0.104E+00    0.457E-01
DAV:   7    -0.169606336458E+03    0.14726E-02   -0.94128E-03  1072   0.761E-01    0.899E-02
DAV:   8    -0.169606360039E+03   -0.23581E-04   -0.15846E-03   984   0.281E-01    0.867E-02
DAV:   9    -0.169606280093E+03    0.79946E-04   -0.52029E-04   864   0.156E-01    0.177E-02
DAV:  10    -0.169606282326E+03   -0.22337E-05   -0.41743E-05   584   0.479E-02
  67 F= -.16960628E+03 E0= -.16955552E+03  d E =-.556091E-01
       N       E                     dE             d eps       ncg     rms          rms(c)
DAV:   1    -0.169621847693E+03   -0.15568E-01   -0.18797E+00   544   0.535E+00    0.105E+00
DAV:   2    -0.169831337802E+03   -0.20949E+00   -0.17160E+00  1088   0.103E+01    0.544E+00
DAV:   3    -0.169616413753E+03    0.21492E+00   -0.11841E+00  1088   0.857E+00    0.512E-01
DAV:   4    -0.169619752788E+03   -0.33390E-02   -0.61634E-02   800   0.181E+00    0.304E-01
DAV:   5    -0.169619770329E+03   -0.17541E-04   -0.14454E-02   912   0.820E-01    0.283E-01
DAV:   6    -0.169619357285E+03    0.41304E-03   -0.11368E-02   888   0.746E-01    0.259E-01
DAV:   7    -0.169618890020E+03    0.46727E-03   -0.44986E-03  1088   0.502E-01    0.105E-01
DAV:   8    -0.169618910239E+03   -0.20220E-04   -0.18078E-03   864   0.266E-01    0.119E-01
DAV:   9    -0.169618794288E+03    0.11595E-03   -0.60772E-04   976   0.184E-01    0.341E-02
DAV:  10    -0.169618796943E+03   -0.26552E-05   -0.14970E-04   880   0.849E-02    0.265E-02
DAV:  11    -0.169618786515E+03    0.10428E-04   -0.44346E-05   592   0.603E-02    0.782E-03
DAV:  12    -0.169618787175E+03   -0.65966E-06   -0.18868E-05   332   0.212E-02
  68 F= -.16961879E+03 E0= -.16956778E+03  d E =-.125048E-01
       N       E                     dE             d eps       ncg     rms          rms(c)
DAV:   1    -0.169625594584E+03   -0.68081E-02   -0.20513E+00   544   0.558E+00    0.111E+00
DAV:   2    -0.169855032530E+03   -0.22944E+00   -0.19008E+00  1088   0.108E+01    0.570E+00
DAV:   3    -0.169619569223E+03    0.23546E+00   -0.13052E+00  1088   0.904E+00    0.555E-01
DAV:   4    -0.169623138305E+03   -0.35691E-02   -0.67005E-02   784   0.190E+00    0.310E-01
DAV:   5    -0.169623270562E+03   -0.13226E-03   -0.14920E-02   912   0.850E-01    0.295E-01
DAV:   6    -0.169622775795E+03    0.49477E-03   -0.11943E-02   864   0.770E-01    0.261E-01
DAV:   7    -0.169622332848E+03    0.44295E-03   -0.48144E-03  1080   0.517E-01    0.119E-01
DAV:   8    -0.169622319067E+03    0.13781E-04   -0.20003E-03   864   0.282E-01    0.121E-01
DAV:   9    -0.169622207936E+03    0.11113E-03   -0.60058E-04  1040   0.186E-01    0.358E-02
DAV:  10    -0.169622210858E+03   -0.29217E-05   -0.16831E-04   888   0.931E-02    0.296E-02
DAV:  11    -0.169622198796E+03    0.12062E-04   -0.58044E-05   656   0.643E-02    0.727E-03
DAV:  12    -0.169622198882E+03   -0.86812E-07   -0.11532E-05   308   0.218E-02
  69 F= -.16962220E+03 E0= -.16957081E+03  d E =-.159166E-01
       N       E                     dE             d eps       ncg     rms          rms(c)
DAV:   1    -0.169635199402E+03   -0.13001E-01   -0.15150E+00   608   0.636E+00    0.150E+00
DAV:   2    -0.170010116083E+03   -0.37492E+00   -0.29416E+00  1088   0.134E+01    0.807E+00
DAV:   3    -0.169620405043E+03    0.38971E+00   -0.23750E+00  1088   0.109E+01    0.621E-01
DAV:   4    -0.169628247651E+03   -0.78426E-02   -0.11673E-01   832   0.249E+00    0.690E-01
DAV:   5    -0.169624134028E+03    0.41136E-02   -0.30984E-02   884   0.151E+00    0.271E-01
DAV:   6    -0.169624305229E+03   -0.17120E-03   -0.98062E-03   904   0.621E-01    0.270E-01
DAV:   7    -0.169623606105E+03    0.69912E-03   -0.45501E-03   904   0.464E-01    0.868E-02
DAV:   8    -0.169623661589E+03   -0.55484E-04   -0.15352E-03   904   0.250E-01    0.100E-01
DAV:   9    -0.169623538928E+03    0.12266E-03   -0.72259E-04   896   0.186E-01    0.426E-02
DAV:  10    -0.169623537769E+03    0.11596E-05   -0.12460E-04   800   0.847E-02    0.290E-02
DAV:  11    -0.169623531372E+03    0.63970E-05   -0.29777E-05   528   0.412E-02
  70 F= -.16962353E+03 E0= -.16957031E+03  d E =-.133249E-02
       N       E                     dE             d eps       ncg     rms          rms(c)
DAV:   1    -0.169626655736E+03   -0.31180E-02   -0.24859E-01   608   0.254E+00    0.621E-01
DAV:   2    -0.169687262513E+03   -0.60607E-01   -0.49691E-01  1088   0.553E+00    0.310E+00
DAV:   3    -0.169623886905E+03    0.63376E-01   -0.38207E-01  1088   0.477E+00    0.209E-01
DAV:   4    -0.169625620833E+03   -0.17339E-02   -0.21373E-02   856   0.103E+00    0.297E-01
DAV:   5    -0.169624866916E+03    0.75392E-03   -0.56336E-03   852   0.633E-01    0.155E-01
DAV:   6    -0.169624777306E+03    0.89610E-04   -0.12223E-03  1064   0.243E-01    0.865E-02
DAV:   7    -0.169624723482E+03    0.53823E-04   -0.51802E-04   920   0.161E-01    0.347E-02
DAV:   8    -0.169624721488E+03    0.19946E-05   -0.12056E-04   864   0.720E-02    0.255E-02
DAV:   9    -0.169624718795E+03    0.26924E-05   -0.48039E-05   624   0.509E-02
  71 F= -.16962472E+03 E0= -.16957230E+03  d E =-.251991E-02
       N       E                     dE             d eps       ncg     rms          rms(c)
DAV:   1    -0.169627954992E+03   -0.32335E-02   -0.22789E-01   544   0.167E+00    0.294E-01
DAV:   2    -0.169643874356E+03   -0.15919E-01   -0.13322E-01  1080   0.307E+00    0.128E+00
DAV:   3    -0.169627313068E+03    0.16561E-01   -0.97381E-02  1088   0.250E+00    0.208E-01
DAV:   4    -0.169627252937E+03    0.60131E-04   -0.40267E-03   816   0.531E-01    0.104E-01
DAV:   5    -0.169627235873E+03    0.17064E-04   -0.13734E-03   868   0.277E-01    0.921E-02
DAV:   6    -0.169627213980E+03    0.21893E-04   -0.14012E-03   936   0.262E-01    0.917E-02
DAV:   7    -0.169627142230E+03    0.71750E-04   -0.51647E-04  1016   0.160E-01    0.255E-02
DAV:   8    -0.169627143684E+03   -0.14540E-05   -0.99660E-05   848   0.661E-02
  72 F= -.16962714E+03 E0= -.16957414E+03  d E =-.242489E-02
       N       E                     dE             d eps       ncg     rms          rms(c)
DAV:   1    -0.169628261778E+03   -0.11195E-02   -0.94172E-02   552   0.108E+00    0.192E-01
DAV:   2    -0.169635095172E+03   -0.68334E-02   -0.55992E-02  1088   0.202E+00    0.848E-01
DAV:   3    -0.169628029031E+03    0.70661E-02   -0.41426E-02  1088   0.165E+00    0.143E-01
DAV:   4    -0.169627987551E+03    0.41480E-04   -0.17710E-03   832   0.350E-01    0.675E-02
DAV:   5    -0.169627985411E+03    0.21394E-05   -0.58236E-04   876   0.176E-01    0.615E-02
DAV:   6    -0.169627970829E+03    0.14582E-04   -0.57246E-04   952   0.167E-01    0.570E-02
DAV:   7    -0.169627945062E+03    0.25767E-04   -0.20269E-04   992   0.100E-01    0.184E-02
DAV:   8    -0.169627942899E+03    0.21636E-05   -0.30506E-05   520   0.466E-02
  73 F= -.16962794E+03 E0= -.16957455E+03  d E =-.322410E-02
       N       E                     dE             d eps       ncg     rms          rms(c)
DAV:   1    -0.169629155398E+03   -0.12103E-02   -0.37560E-01   552   0.214E+00    0.383E-01
DAV:   2    -0.169656802462E+03   -0.27647E-01   -0.22569E-01  1088   0.403E+00    0.169E+00
DAV:   3    -0.169628055549E+03    0.28747E-01   -0.16506E-01  1088   0.329E+00    0.265E-01
DAV:   4    -0.169627982846E+03    0.72702E-04   -0.67935E-03   808   0.688E-01    0.134E-01
DAV:   5    -0.169627967673E+03    0.15173E-04   -0.23243E-03   876   0.361E-01    0.123E-01
DAV:   6    -0.169627915232E+03    0.52440E-04   -0.23303E-03   936   0.338E-01    0.117E-01
DAV:   7    -0.169627801803E+03    0.11343E-03   -0.86685E-04  1016   0.206E-01    0.352E-02
DAV:   8    -0.169627801887E+03   -0.83692E-07   -0.17060E-04   880   0.866E-02    0.364E-02
DAV:   9    -0.169627792308E+03    0.95787E-05   -0.95097E-05   888   0.719E-02
  74 F= -.16962779E+03 E0= -.16957359E+03  d E =-.307351E-02
       N       E                     dE             d eps       ncg     rms          rms(c)
DAV:   1    -0.169628674371E+03   -0.87248E-03   -0.13152E-01   552   0.127E+00    0.226E-01
DAV:   2    -0.169638396637E+03   -0.97223E-02   -0.82061E-02  1088   0.238E+00    0.100E+00
DAV:   3    -0.169628318219E+03    0.10078E-01   -0.59448E-02  1088   0.195E+00    0.173E-01
DAV:   4    -0.169628234271E+03    0.83948E-04   -0.24963E-03   848   0.418E-01    0.800E-02
DAV:   5    -0.169628232572E+03    0.16983E-05   -0.85829E-04   872   0.214E-01    0.761E-02
DAV:   6    -0.169628200543E+03    0.32029E-04   -0.85675E-04   968   0.206E-01    0.647E-02
DAV:   7    -0.169628166387E+03    0.34156E-04   -0.24620E-04   976   0.112E-01    0.193E-02
DAV:   8    -0.169628165454E+03    0.93317E-06   -0.54869E-05   668   0.526E-02
  75 F= -.16962817E+03 E0= -.16957444E+03  d E =-.344666E-02
       N       E                     dE             d eps       ncg     rms          rms(c)
DAV:   1    -0.169628635528E+03   -0.46914E-03   -0.80823E-02   552   0.100E+00    0.146E-01
DAV:   2    -0.169632805022E+03   -0.41695E-02   -0.30163E-02  1088   0.149E+00    0.735E-01
DAV:   3    -0.169628663059E+03    0.41420E-02   -0.21874E-02  1088   0.123E+00    0.833E-02
DAV:   4    -0.169628712894E+03   -0.49835E-04   -0.12244E-03   856   0.251E-01    0.610E-02
DAV:   5    -0.169628688042E+03    0.24852E-04   -0.41766E-04   872   0.143E-01    0.418E-02
DAV:   6    -0.169628696836E+03   -0.87938E-05   -0.34334E-04   880   0.133E-01    0.559E-02
DAV:   7    -0.169628667783E+03    0.29053E-04   -0.19499E-04   996   0.104E-01    0.135E-02
DAV:   8    -0.169628667294E+03    0.48952E-06   -0.13612E-05   384   0.347E-02
  76 F= -.16962867E+03 E0= -.16957484E+03  d E =-.501840E-03
       N       E                     dE             d eps       ncg     rms          rms(c)
DAV:   1    -0.169628724539E+03   -0.56756E-04   -0.16352E-02   552   0.455E-01    0.655E-02
DAV:   2    -0.169629532395E+03   -0.80786E-03   -0.57637E-03  1088   0.665E-01    0.320E-01
DAV:   3    -0.169628734088E+03    0.79831E-03   -0.42086E-03  1088   0.539E-01    0.373E-02
DAV:   4    -0.169628743111E+03   -0.90227E-05   -0.22598E-04   872   0.109E-01    0.270E-02
DAV:   5    -0.169628737634E+03    0.54774E-05   -0.80061E-05   720   0.660E-02
  77 F= -.16962874E+03 E0= -.16957488E+03  d E =-.572180E-03
       N       E                     dE             d eps       ncg     rms          rms(c)
DAV:   1    -0.169628556993E+03    0.18612E-03   -0.65175E-02   544   0.905E-01    0.140E-01
DAV:   2    -0.169632301672E+03   -0.37447E-02   -0.27496E-02  1088   0.141E+00    0.720E-01
DAV:   3    -0.169628562431E+03    0.37392E-02   -0.20104E-02  1088   0.116E+00    0.722E-02
DAV:   4    -0.169628618923E+03   -0.56491E-04   -0.10521E-03   832   0.230E-01    0.609E-02
DAV:   5    -0.169628597161E+03    0.21762E-04   -0.37260E-04   872   0.141E-01    0.405E-02
DAV:   6    -0.169628599457E+03   -0.22964E-05   -0.25268E-04   864   0.111E-01    0.465E-02
DAV:   7    -0.169628578048E+03    0.21409E-04   -0.14874E-04   936   0.876E-02    0.118E-02
DAV:   8    -0.169628576741E+03    0.13070E-05   -0.77016E-06   348   0.278E-02
  78 F= -.16962858E+03 E0= -.16957462E+03  d E =-.411287E-03
       N       E                     dE             d eps       ncg     rms          rms(c)
DAV:   1    -0.169628719915E+03   -0.14187E-03   -0.42777E-02   544   0.735E-01    0.109E-01
DAV:   2    -0.169631060596E+03   -0.23407E-02   -0.16873E-02  1088   0.111E+00    0.560E-01
DAV:   3    -0.169628728355E+03    0.23322E-02   -0.12425E-02  1088   0.912E-01    0.590E-02
DAV:   4    -0.169628757649E+03   -0.29295E-04   -0.63407E-04   840   0.182E-01    0.434E-02
DAV:   5    -0.169628744270E+03    0.13379E-04   -0.21558E-04   864   0.106E-01    0.312E-02
DAV:   6    -0.169628746013E+03   -0.17429E-05   -0.15206E-04   864   0.854E-02    0.368E-02
DAV:   7    -0.169628732683E+03    0.13330E-04   -0.83769E-05   772   0.691E-02    0.866E-03
DAV:   8    -0.169628732905E+03   -0.22276E-06   -0.89095E-06   304   0.246E-02
  79 F= -.16962873E+03 E0= -.16957487E+03  d E =-.567451E-03
       N       E                     dE             d eps       ncg     rms          rms(c)
DAV:   1    -0.169629392557E+03   -0.65987E-03   -0.47197E-02   608   0.126E+00    0.324E-01
DAV:   2    -0.169645895047E+03   -0.16502E-01   -0.13017E-01  1088   0.285E+00    0.167E+00
DAV:   3    -0.169628576818E+03    0.17318E-01   -0.10396E-01  1088   0.243E+00    0.115E-01
DAV:   4    -0.169629044076E+03   -0.46726E-03   -0.61094E-03   864   0.559E-01    0.166E-01
DAV:   5    -0.169628797356E+03    0.24672E-03   -0.15686E-03   876   0.332E-01    0.785E-02
DAV:   6    -0.169628793233E+03    0.41228E-05   -0.48580E-04   888   0.142E-01    0.593E-02
DAV:   7    -0.169628760977E+03    0.32256E-04   -0.18435E-04   864   0.936E-02    0.198E-02
DAV:   8    -0.169628760268E+03    0.70905E-06   -0.46335E-05   588   0.507E-02
  80 F= -.16962876E+03 E0= -.16957493E+03  d E =-.273624E-04
