 vasp.5.4.4.18Apr17-6-g9f103f2a35 (build Jul 11 2019 11:52:51) complex          
  
 executed on             LinuxIFC date 2023.11.29  16:56:30
 running on    4 total cores
 distrk:  each k-point on    4 cores,    1 groups
 distr:  one band on NCORES_PER_BAND=   1 cores,    4 groups


--------------------------------------------------------------------------------------------------------


 INCAR:
 POTCAR:    PAW_PBE V 08Apr2002                   
 POTCAR:    PAW_PBE Fe 06Sep2000                  
 POTCAR:    PAW_PBE V 08Apr2002                   
   VRHFIN =V: p6 d4 s1                                                          
   LEXCH  = PE                                                                  
   EATOM  =   170.8679 eV,   12.5584 Ry                                         
                                                                                
   TITEL  = PAW_PBE V 08Apr2002                                                 
   LULTRA =        F    use ultrasoft PP ?                                      
   IUNSCR =        1    unscreen: 0-lin 1-nonlin 2-no                           
   RPACOR =    2.000    partial core radius                                     
   POMASS =   50.941; ZVAL   =    5.000    mass and valenz                      
   RCORE  =    2.700    outmost cutoff radius                                   
   RWIGS  =    2.500; RWIGS  =    1.323    wigner-seitz radius (au A)           
   ENMAX  =  192.543; ENMIN  =  144.408 eV                                      
   RCLOC  =    1.779    cutoff for local pot                                    
   LCOR   =        T    correct aug charges                                     
   LPAW   =        T    paw PP                                                  
   EAUG   =  358.662                                                            
   DEXC   =    0.000                                                            
   RMAX   =    2.768    core radius for proj-oper                               
   RAUG   =    1.300    factor for augmentation sphere                          
   RDEP   =    2.762    radius for radial grids                                 
   RDEPT  =    2.240    core radius for aug-charge                              
                                                                                
   Atomic configuration                                                         
    9 entries                                                                   
     n  l   j            E        occ.                                          
     1  0  0.50     -5360.7193   2.0000                                         
     2  0  0.50      -598.4546   2.0000                                         
     2  1  1.50      -499.0155   6.0000                                         
     3  0  0.50       -66.5711   2.0000                                         
     3  1  1.50       -40.5282   6.0000                                         
     3  2  2.50        -2.4291   4.0000                                         
     4  0  0.50        -3.8743   1.0000                                         
     4  1  0.50        -2.7212   0.0000                                         
     4  3  2.50        -1.3606   0.0000                                         
   Description                                                                  
     l       E           TYP  RCUT    TYP  RCUT                                 
     2     -2.4290901     23  2.700                                             
     2     -3.7896727     23  2.700                                             
     0     -3.8742752     23  2.700                                             
     0     27.2116520     23  2.700                                             
     1     -2.7211652     23  2.700                                             
     1     27.2116520     23  2.700                                             
  local pseudopotential read in
  partial core-charges read in
  partial kinetic energy density read in
  atomic valenz-charges read in
  non local Contribution for L=           2  read in
    real space projection operators read in
  non local Contribution for L=           2  read in
    real space projection operators read in
  non local Contribution for L=           0  read in
    real space projection operators read in
  non local Contribution for L=           0  read in
    real space projection operators read in
  non local Contribution for L=           1  read in
    real space projection operators read in
  non local Contribution for L=           1  read in
    real space projection operators read in
    PAW grid and wavefunctions read in
 
   number of l-projection  operators is LMAX  =           6
   number of lm-projection operators is LMMAX =          18
 
 POTCAR:    PAW_PBE Fe 06Sep2000                  
   VRHFIN =Fe:  d7 s1                                                           
   LEXCH  = PE                                                                  
   EATOM  =   594.3153 eV,   43.6809 Ry                                         
                                                                                
   TITEL  = PAW_PBE Fe 06Sep2000                                                
   LULTRA =        F    use ultrasoft PP ?                                      
   IUNSCR =        1    unscreen: 0-lin 1-nonlin 2-no                           
   RPACOR =    2.000    partial core radius                                     
   POMASS =   55.847; ZVAL   =    8.000    mass and valenz                      
   RCORE  =    2.300    outmost cutoff radius                                   
   RWIGS  =    2.460; RWIGS  =    1.302    wigner-seitz radius (au A)           
   ENMAX  =  267.882; ENMIN  =  200.911 eV                                      
   RCLOC  =    1.701    cutoff for local pot                                    
   LCOR   =        T    correct aug charges                                     
   LPAW   =        T    paw PP                                                  
   EAUG   =  511.368                                                            
   DEXC   =    0.000                                                            
   RMAX   =    2.356    core radius for proj-oper                               
   RAUG   =    1.300    factor for augmentation sphere                          
   RDEP   =    2.442    radius for radial grids                                 
   RDEPT  =    1.890    core radius for aug-charge                              
                                                                                
   Atomic configuration                                                         
    9 entries                                                                   
     n  l   j            E        occ.                                          
     1  0  0.50     -6993.8440   2.0000                                         
     2  0  0.50      -814.6047   2.0000                                         
     2  1  1.50      -693.3689   6.0000                                         
     3  0  0.50       -89.4732   2.0000                                         
     3  1  1.50       -55.6373   6.0000                                         
     3  2  2.50        -3.8151   7.0000                                         
     4  0  0.50        -4.2551   1.0000                                         
     4  1  1.50        -3.4015   0.0000                                         
     4  3  2.50        -1.3606   0.0000                                         
   Description                                                                  
     l       E           TYP  RCUT    TYP  RCUT                                 
     2     -3.8151135     23  2.300                                             
     2     -5.1756961     23  2.300                                             
     0     -4.2550963     23  2.300                                             
     0      7.2035603     23  2.300                                             
     1     -2.7211652     23  2.300                                             
     1     18.4316424     23  2.300                                             
  local pseudopotential read in
  partial core-charges read in
  partial kinetic energy density read in
  atomic valenz-charges read in
  non local Contribution for L=           2  read in
    real space projection operators read in
  non local Contribution for L=           2  read in
    real space projection operators read in
  non local Contribution for L=           0  read in
    real space projection operators read in
  non local Contribution for L=           0  read in
    real space projection operators read in
  non local Contribution for L=           1  read in
    real space projection operators read in
  non local Contribution for L=           1  read in
    real space projection operators read in
    PAW grid and wavefunctions read in
 
   number of l-projection  operators is LMAX  =           6
   number of lm-projection operators is LMMAX =          18
 

 ----------------------------------------------------------------------------- 
|                                                                             |
|  ADVICE TO THIS USER RUNNING 'VASP/VAMP'   (HEAR YOUR MASTER'S VOICE ...):  |
|                                                                             |
|      You have a (more or less) 'large supercell' and for larger cells       |
|      it might be more efficient to use real space projection opertators     |
|      So try LREAL= Auto  in the INCAR   file.                               |
|      Mind:          For very  accurate calculation you might also keep the  |
|      reciprocal projection scheme          (i.e. LREAL=.FALSE.)             |
|                                                                             |
 ----------------------------------------------------------------------------- 

  PAW_PBE V 08Apr2002                   :
 energy of atom  1       EATOM= -170.8679
 kinetic energy error for atom=    0.0066 (will be added to EATOM!!)
  PAW_PBE Fe 06Sep2000                  :
 energy of atom  2       EATOM= -594.3153
 kinetic energy error for atom=    0.0346 (will be added to EATOM!!)
 
 
 POSCAR: EA0     8.296  8.296  4.347 90.00 90.00 
  positions in direct lattice
  No initial velocities read in
 exchange correlation table for  LEXCH =        8
   RHO(1)=    0.500       N(1)  =     2000
   RHO(2)=  100.500       N(2)  =     4000
 


--------------------------------------------------------------------------------------------------------


 ion  position               nearest neighbor table
   1  0.986  0.437  0.219-   4 2.12  14 2.15   8 2.23  18 2.24   4 2.61  13 2.64  11 2.81  15 2.89
                             7 2.92  19 2.93
   2  0.563  0.549  0.219-   5 2.12  15 2.15   9 2.23  19 2.24   5 2.61  13 2.64  12 2.81  16 2.89
                             8 2.92  20 2.93
   3  0.451  0.014  0.219-   6 2.12  16 2.15   7 2.23  20 2.24   6 2.61  13 2.64  10 2.81  14 2.89
                             9 2.92  18 2.93
   4  0.986  0.549  0.781-   1 2.12  15 2.15   7 2.23  19 2.24   1 2.61  13 2.64  10 2.81  14 2.89
                             8 2.92  18 2.93
   5  0.451  0.437  0.781-   2 2.12  16 2.15   8 2.23  20 2.24   2 2.61  13 2.64  11 2.81  15 2.89
                             9 2.92  19 2.93
   6  0.563  0.014  0.781-   3 2.12  14 2.15   9 2.23  18 2.24   3 2.61  13 2.64  12 2.81  16 2.89
                             7 2.92  20 2.93
   7  0.179  0.821  0.000-   4 2.23   3 2.23  10 2.42  10 2.42  16 2.51  15 2.51  17 2.57   1 2.92
                             6 2.92
   8  0.179  0.358  0.000-   1 2.23   5 2.23  11 2.42  11 2.42  16 2.51  14 2.51  17 2.57   4 2.92
                             2 2.92
   9  0.642  0.821  0.000-   6 2.23   2 2.23  12 2.42  12 2.42  15 2.51  14 2.51  17 2.57   3 2.92
                             5 2.92
  10  0.105  0.895  0.500-  20 2.24  19 2.24   7 2.42   7 2.42  11 2.60  12 2.60  17 2.64  17 2.64
                             4 2.81   3 2.81  16 3.05  16 3.05  15 3.05  15 3.05
  11  0.105  0.209  0.500-  18 2.24  20 2.24   8 2.42   8 2.42  10 2.60  12 2.60  17 2.64  17 2.64
                             1 2.81   5 2.81  16 3.05  16 3.05  14 3.05  14 3.05
  12  0.791  0.895  0.500-  18 2.24  19 2.24   9 2.42   9 2.42  10 2.60  11 2.60  17 2.64  17 2.64
                             6 2.81   2 2.81  15 3.05  15 3.05  14 3.05  14 3.05
  13  0.667  0.333  0.500-  18 2.21  19 2.21  20 2.21   6 2.64   1 2.64   3 2.64   4 2.64   2 2.64
                             5 2.64
  14  0.829  0.171  0.000-   1 2.15   6 2.15  18 2.18  18 2.18  17 2.45   9 2.51   8 2.51   4 2.89
                             3 2.89  12 3.05  12 3.05  11 3.05  11 3.05
  15  0.829  0.659  0.000-   4 2.15   2 2.15  19 2.18  19 2.18  17 2.45   9 2.51   7 2.51   1 2.89
                             5 2.89  12 3.05  12 3.05  10 3.05  10 3.05
  16  0.341  0.171  0.000-   3 2.15   5 2.15  20 2.18  20 2.18  17 2.45   8 2.51   7 2.51   6 2.89
                             2 2.89  11 3.05  11 3.05  10 3.05  10 3.05
  17  0.000  0.000  0.000-  14 2.45  15 2.45  16 2.45   7 2.57   8 2.57   9 2.57  10 2.64  10 2.64
                            11 2.64  11 2.64  12 2.64  12 2.64
  18  0.821  0.179  0.500-  14 2.18  14 2.18  13 2.21   1 2.24   6 2.24  12 2.24  11 2.24   4 2.93
                             3 2.93
  19  0.821  0.641  0.500-  15 2.18  15 2.18  13 2.21   4 2.24   2 2.24  10 2.24  12 2.24   1 2.93
                             5 2.93
  20  0.359  0.179  0.500-  16 2.18  16 2.18  13 2.21   3 2.24   5 2.24  10 2.24  11 2.24   6 2.93
                             2 2.93
 
  LATTYP: Found a hexagonal cell.
 ALAT       =     8.2956530430
 C/A-ratio  =     0.5240082942
  
  Lattice vectors:
  
 A1 = (   8.2956530000,   0.0000000000,   0.0000000000)
 A2 = (  -4.1478260000,   7.1842460000,   0.0000000000)
 A3 = (   0.0000000000,   0.0000000000,   4.3469910000)


Analysis of symmetry for initial positions (statically):
=====================================================================
 Subroutine PRICEL returns:
 Original cell was already a primitive cell.
 

 Routine SETGRP: Setting up the symmetry group for a 
 hexagonal supercell.


 Subroutine GETGRP returns: Found  6 space group operations
 (whereof  6 operations were pure point group operations)
 out of a pool of 24 trial point group operations.


The static configuration has the point symmetry D_3 .


Analysis of symmetry for dynamics (positions and initial velocities):
=====================================================================
 Subroutine PRICEL returns:
 Original cell was already a primitive cell.
 

 Routine SETGRP: Setting up the symmetry group for a 
 hexagonal supercell.


 Subroutine GETGRP returns: Found  6 space group operations
 (whereof  6 operations were pure point group operations)
 out of a pool of 24 trial point group operations.


The dynamic configuration has the point symmetry D_3 .


 Subroutine INISYM returns: Found  6 space group operations
 (whereof  6 operations are pure point group operations),
 and found     1 'primitive' translations

 
 
 KPOINTS: EA                                      

Automatic generation of k-mesh.
Space group operators:
 irot       det(A)        alpha          n_x          n_y          n_z        tau_x        tau_y        tau_z
    1     1.000000     0.000000     1.000000     0.000000     0.000000     0.000000     0.000000     0.000000
    2     1.000000   120.000000     0.000000     0.000000    -1.000000     0.000000     0.000000     0.000000
    3     1.000000   120.000000     0.000000     0.000000     1.000000     0.000000     0.000000     0.000000
    4     1.000000   180.000000     0.866025    -0.500000     0.000000     0.000000     0.000000     0.000000
    5     1.000000   180.000000     0.000000     1.000000     0.000000     0.000000     0.000000     0.000000
    6     1.000000   180.000000     0.866025     0.500000     0.000000     0.000000     0.000000     0.000000
 
 Subroutine IBZKPT returns following result:
 ===========================================
 
 Found      4 irreducible k-points:
 
 Following reciprocal coordinates:
            Coordinates               Weight
  0.000000  0.000000  0.000000      1.000000
  0.500000 -0.000000  0.000000      3.000000
  0.000000  0.000000  0.333333      2.000000
  0.500000 -0.000000  0.333333      6.000000
 
 Following cartesian coordinates:
            Coordinates               Weight
  0.000000  0.000000  0.000000      1.000000
  0.060273  0.034798  0.000000      3.000000
  0.000000  0.000000  0.076681      2.000000
  0.060273  0.034798  0.076681      6.000000
 


--------------------------------------------------------------------------------------------------------




 Dimension of arrays:
   k-points           NKPTS =      4   k-points in BZ     NKDIM =      4   number of bands    NBANDS=     68
   number of dos      NEDOS =    301   number of ions     NIONS =     20
   non local maximal  LDIM  =      6   non local SUM 2l+1 LMDIM =     18
   total plane-waves  NPLWV =  23328
   max r-space proj   IRMAX =      1   max aug-charges    IRDMAX=   5660
   dimension x,y,z NGX =    36 NGY =   36 NGZ =   18
   dimension x,y,z NGXF=    72 NGYF=   72 NGZF=   36
   support grid    NGXF=    72 NGYF=   72 NGZF=   36
   ions per type =              17   3
   NGX,Y,Z   is equivalent  to a cutoff of   7.21,  7.21,  6.88 a.u.
   NGXF,Y,Z  is equivalent  to a cutoff of  14.43, 14.43, 13.77 a.u.

 SYSTEM =  unknown system                          
 POSCAR =  EA0     8.296  8.296  4.347 90.00 90.00 

 Startparameter for this run:
   NWRITE =      2    write-flag & timer
   PREC   = normal    normal or accurate (medium, high low for compatibility)
   ISTART =      0    job   : 0-new  1-cont  2-samecut
   ICHARG =      2    charge: 1-file 2-atom 10-const
   ISPIN  =      1    spin polarized calculation?
   LNONCOLLINEAR =      F non collinear calculations
   LSORBIT =      F    spin-orbit coupling
   INIWAV =      1    electr: 0-lowe 1-rand  2-diag
   LASPH  =      F    aspherical Exc in radial PAW
   METAGGA=      F    non-selfconsistent MetaGGA calc.

 Electronic Relaxation 1
   ENCUT  =  267.9 eV  19.69 Ry    4.44 a.u.  11.07 11.07  5.80*2*pi/ulx,y,z
   ENINI  =  267.9     initial cutoff
   ENAUG  =  511.4 eV  augmentation charge cutoff
   NELM   =     60;   NELMIN=  2; NELMDL= -5     # of ELM steps 
   EDIFF  = 0.1E-04   stopping-criterion for ELM
   LREAL  =      F    real-space projection
   NLSPLINE    = F    spline interpolate recip. space projectors
   LCOMPAT=      F    compatible to vasp.4.4
   GGA_COMPAT  = T    GGA compatible to vasp.4.4-vasp.4.6
   LMAXPAW     = -100 max onsite density
   LMAXMIX     =    2 max onsite mixed and CHGCAR
   VOSKOWN=      0    Vosko Wilk Nusair interpolation
   ROPT   =    0.00000   0.00000
 Ionic relaxation
   EDIFFG = -.1E-01   stopping-criterion for IOM
   NSW    =    500    number of steps for IOM
   NBLOCK =      1;   KBLOCK =    500    inner block; outer block 
   IBRION =      2    ionic relax: 0-MD 1-quasi-New 2-CG
   NFREE  =      1    steps in history (QN), initial steepest desc. (CG)
   ISIF   =      3    stress and relaxation
   IWAVPR =     11    prediction:  0-non 1-charg 2-wave 3-comb
   ISYM   =      2    0-nonsym 1-usesym 2-fastsym
   LCORR  =      T    Harris-Foulkes like correction to forces

   POTIM  = 0.5000    time-step for ionic-motion
   TEIN   =    0.0    initial temperature
   TEBEG  =    0.0;   TEEND  =   0.0 temperature during run
   SMASS  =  -3.00    Nose mass-parameter (am)
   estimated Nose-frequenzy (Omega)   =  0.10E-29 period in steps =****** mass=  -0.157E-26a.u.
   SCALEE = 1.0000    scale energy and forces
   NPACO  =    256;   APACO  = 16.0  distance and # of slots for P.C.
   PSTRESS=    0.0 pullay stress

  Mass of Ions in am
   POMASS =  50.94 55.85
  Ionic Valenz
   ZVAL   =   5.00  8.00
  Atomic Wigner-Seitz radii
   RWIGS  =  -1.00 -1.00
  virtual crystal weights 
   VCA    =   1.00  1.00
   NELECT =     109.0000    total number of electrons
   NUPDOWN=      -1.0000    fix difference up-down

 DOS related values:
   EMIN   =  10.00;   EMAX   =-10.00  energy-range for DOS
   EFERMI =   0.00
   ISMEAR =     0;   SIGMA  =   0.10  broadening in eV -4-tet -1-fermi 0-gaus

 Electronic relaxation 2 (details)
   IALGO  =     38    algorithm
   LDIAG  =      T    sub-space diagonalisation (order eigenvalues)
   LSUBROT=      F    optimize rotation matrix (better conditioning)
   TURBO    =      0    0=normal 1=particle mesh
   IRESTART =      0    0=no restart 2=restart with 2 vectors
   NREBOOT  =      0    no. of reboots
   NMIN     =      0    reboot dimension
   EREF     =   0.00    reference energy to select bands
   IMIX   =      4    mixing-type and parameters
     AMIX     =   0.40;   BMIX     =  1.00
     AMIX_MAG =   1.60;   BMIX_MAG =  1.00
     AMIN     =   0.10
     WC   =   100.;   INIMIX=   1;  MIXPRE=   1;  MAXMIX= -45

 Intra band minimization:
   WEIMIN = 0.0010     energy-eigenvalue tresh-hold
   EBREAK =  0.37E-07  absolut break condition
   DEPER  =   0.30     relativ break condition  

   TIME   =   0.40     timestep for ELM

  volume/ion in A,a.u.               =      12.95        87.42
  Fermi-wavevector in a.u.,A,eV,Ry     =   1.226714  2.318154 20.474434  1.504828
  Thomas-Fermi vector in A             =   2.361705
 
 Write flags
   LWAVE        =      F    write WAVECAR
   LDOWNSAMPLE  =      F    k-point downsampling of WAVECAR
   LCHARG       =      F    write CHGCAR
   LVTOT        =      F    write LOCPOT, total local potential
   LVHAR        =      F    write LOCPOT, Hartree potential only
   LELF         =      F    write electronic localiz. function (ELF)
   LORBIT       =      0    0 simple, 1 ext, 2 COOP (PROOUT), +10 PAW based schemes


 Dipole corrections
   LMONO  =      F    monopole corrections only (constant potential shift)
   LDIPOL =      F    correct potential (dipole corrections)
   IDIPOL =      0    1-x, 2-y, 3-z, 4-all directions 
   EPSILON=  1.0000000 bulk dielectric constant

 Exchange correlation treatment:
   GGA     =    --    GGA type
   LEXCH   =     8    internal setting for exchange type
   VOSKOWN=      0    Vosko Wilk Nusair interpolation
   LHFCALC =     F    Hartree Fock is set to
   LHFONE  =     F    Hartree Fock one center treatment
   AEXX    =    0.0000 exact exchange contribution

 Linear response parameters
   LEPSILON=     F    determine dielectric tensor
   LRPA    =     F    only Hartree local field effects (RPA)
   LNABLA  =     F    use nabla operator in PAW spheres
   LVEL    =     F    velocity operator in full k-point grid
   LINTERFAST=   F  fast interpolation
   KINTER  =     0    interpolate to denser k-point grid
   CSHIFT  =0.1000    complex shift for real part using Kramers Kronig
   OMEGAMAX=  -1.0    maximum frequency
   DEG_THRESHOLD= 0.2000000E-02 threshold for treating states as degnerate
   RTIME   =   -0.100 relaxation time in fs
  (WPLASMAI=    0.000 imaginary part of plasma frequency in eV, 0.658/RTIME)
   DFIELD  = 0.0000000 0.0000000 0.0000000 field for delta impulse in time
 
 Orbital magnetization related:
   ORBITALMAG=     F  switch on orbital magnetization
   LCHIMAG   =     F  perturbation theory with respect to B field
   DQ        =  0.001000  dq finite difference perturbation B field
   LLRAUG    =     F  two centre corrections for induced B field



--------------------------------------------------------------------------------------------------------


 conjugate gradient relaxation of ions
 charge density and potential will be updated during run
 non-spin polarized calculation
 Variant of blocked Davidson
 Davidson routine will perform the subspace rotation
 perform sub-space diagonalisation
    after iterative eigenvector-optimisation
 modified Broyden-mixing scheme, WC =      100.0
 initial mixing is a Kerker type mixing with AMIX =  0.4000 and BMIX =      1.0000
 Hartree-type preconditioning will be used
 using additional bands           13
 reciprocal scheme for non local part
 use partial core corrections
 calculate Harris-corrections to forces 
   (improved forces if not selfconsistent)
 use gradient corrections 
 use of overlap-Matrix (Vanderbilt PP)
 Gauss-broadening in eV      SIGMA  =   0.10


--------------------------------------------------------------------------------------------------------


  energy-cutoff  :      267.88
  volume of cell :      259.07
      direct lattice vectors                 reciprocal lattice vectors
     8.295653000  0.000000000  0.000000000     0.120545061  0.069596718  0.000000000
    -4.147826000  7.184246000  0.000000000     0.000000000  0.139193452  0.000000000
     0.000000000  0.000000000  4.346991000     0.000000000  0.000000000  0.230044185

  length of vectors
     8.295653000  8.295652543  4.346991000     0.139193444  0.139193452  0.230044185


 
 k-points in units of 2pi/SCALE and weight: EA                                      
   0.00000000  0.00000000  0.00000000       0.083
   0.06027253  0.03479836  0.00000000       0.250
   0.00000000  0.00000000  0.07668139       0.167
   0.06027253  0.03479836  0.07668139       0.500
 
 k-points in reciprocal lattice and weights: EA                                      
   0.00000000  0.00000000  0.00000000       0.083
   0.50000000 -0.00000000  0.00000000       0.250
   0.00000000  0.00000000  0.33333333       0.167
   0.50000000 -0.00000000  0.33333333       0.500
 
 position of ions in fractional coordinates (direct lattice) 
   0.98577500  0.43717800  0.21881900
   0.56282200  0.54859700  0.21881900
   0.45140300  0.01422500  0.21881900
   0.98577500  0.54859700  0.78118100
   0.45140300  0.43717800  0.78118100
   0.56282200  0.01422500  0.78118100
   0.17890100  0.82109900  0.00000000
   0.17890100  0.35780200  0.00000000
   0.64219800  0.82109900  0.00000000
   0.10465200  0.89534800  0.50000000
   0.10465200  0.20930400  0.50000000
   0.79069600  0.89534800  0.50000000
   0.66666700  0.33333300  0.50000000
   0.82931000  0.17069000  0.00000000
   0.82931000  0.65862000  0.00000000
   0.34138000  0.17069000  0.00000000
   0.00000000  0.00000000  0.00000000
   0.82070400  0.17929600  0.50000000
   0.82070400  0.64140700  0.50000000
   0.35859300  0.17929600  0.50000000
 
 position of ions in cartesian coordinates  (Angst):
   6.36430906  3.14079430  0.95120422
   2.39349111  3.94125580  0.95120422
   3.68567983  0.10219590  0.95120422
   5.90216244  3.94125580  3.39578678
   1.93134438  3.14079430  3.39578678
   4.60997319  0.10219590  3.39578678
  -1.92167516  5.89897721  0.00000000
   0.00000018  2.57053759  0.00000000
   1.92167598  5.89897721  0.00000000
  -2.84559104  6.43240029  2.17349550
   0.00000010  1.50369142  2.17349550
   2.84559193  6.43240029  2.17349550
   4.14783081  2.39474627  2.17349550
   6.17167557  1.22627895  0.00000000
   4.14782683  4.73168810  0.00000000
   2.12397760  1.22627895  0.00000000
   0.00000000  0.00000000  0.00000000
   6.06458699  1.28810657  2.17349550
   4.14783097  4.60802567  2.17349550
   2.23107449  1.28810657  2.17349550
 


--------------------------------------------------------------------------------------------------------


 k-point  1 :   0.0000 0.0000 0.0000  plane waves:    2567
 k-point  2 :   0.5000-0.0000 0.0000  plane waves:    2560
 k-point  3 :   0.0000 0.0000 0.3333  plane waves:    2580
 k-point  4 :   0.5000-0.0000 0.3333  plane waves:    2578

 maximum and minimum number of plane-waves per node :      2580     2560

 maximum number of plane-waves:      2580
 maximum index in each direction: 
   IXMAX=   11   IYMAX=   11   IZMAX=    5
   IXMIN=  -11   IYMIN=  -11   IZMIN=   -6


 serial   3D FFT for wavefunctions
 parallel 3D FFT for charge:
    minimum data exchange during FFTs selected (reduces bandwidth)


 total amount of memory used by VASP MPI-rank0    42733. kBytes
=======================================================================

   base      :      30000. kBytes
   nonl-proj :       3797. kBytes
   fftplans  :       1757. kBytes
   grid      :       3670. kBytes
   one-center:        311. kBytes
   wavefun   :       3198. kBytes
 
     INWAV:  cpu time    0.0000: real time    0.0000
 Broyden mixing: mesh for mixing (old mesh)
   NGX = 23   NGY = 23   NGZ = 11
  (NGX  = 72   NGY  = 72   NGZ  = 36)
  gives a total of   5819 points

 initial charge density was supplied:
 charge density of overlapping atoms calculated
 number of electron     109.0000000 magnetization 
 keeping initial charge density in first step


--------------------------------------------------------------------------------------------------------


 Maximum index for augmentation-charges         1342 (set IRDMAX)


--------------------------------------------------------------------------------------------------------


 First call to EWALD:  gamma=   0.278
 Maximum number of real-space cells 2x 2x 4
 Maximum number of reciprocal cells 3x 3x 2

    FEWALD:  cpu time    0.0024: real time    0.0024


--------------------------------------- Iteration      1(   1)  ---------------------------------------


    POTLOK:  cpu time    0.0411: real time    0.0411
    SETDIJ:  cpu time    0.0181: real time    0.0181
     EDDAV:  cpu time    0.7057: real time    0.7073
       DOS:  cpu time    0.0007: real time    0.0007
    --------------------------------------------
      LOOP:  cpu time    0.7656: real time    0.7673

 eigenvalue-minimisations  :   552
 total energy-change (2. order) : 0.7119587E+03  (-0.2348903E+04)
 number of electron     109.0000000 magnetization 
 augmentation part      109.0000000 magnetization 

 Free energy of the ion-electron system (eV)
  ---------------------------------------------------
  alpha Z        PSCENC =       552.45270090
  Ewald energy   TEWEN  =     -4686.97330186
  -Hartree energ DENC   =     -1289.44686073
  -exchange      EXHF   =         0.00000000
  -V(xc)+E(xc)   XCENC  =      -768.31940792
  PAW double counting   =      5171.05454107    -4356.08836938
  entropy T*S    EENTRO =        -0.06777354
  eigenvalues    EBANDS =      1401.86298730
  atomic energy  EATOM  =      4687.48422623
  Solvation  Ediel_sol  =         0.00000000
  ---------------------------------------------------
  free energy    TOTEN  =       711.95874206 eV

  energy without entropy =      712.02651560  energy(sigma->0) =      711.99262883


--------------------------------------------------------------------------------------------------------




--------------------------------------- Iteration      1(   2)  ---------------------------------------


     EDDAV:  cpu time    0.7097: real time    0.7112
       DOS:  cpu time    0.0009: real time    0.0009
    --------------------------------------------
      LOOP:  cpu time    0.7106: real time    0.7121

 eigenvalue-minimisations  :   544
 total energy-change (2. order) :-0.7371747E+03  (-0.7111640E+03)
 number of electron     109.0000000 magnetization 
 augmentation part      109.0000000 magnetization 

 Free energy of the ion-electron system (eV)
  ---------------------------------------------------
  alpha Z        PSCENC =       552.45270090
  Ewald energy   TEWEN  =     -4686.97330186
  -Hartree energ DENC   =     -1289.44686073
  -exchange      EXHF   =         0.00000000
  -V(xc)+E(xc)   XCENC  =      -768.31940792
  PAW double counting   =      5171.05454107    -4356.08836938
  entropy T*S    EENTRO =        -0.06900978
  eigenvalues    EBANDS =       664.68953218
  atomic energy  EATOM  =      4687.48422623
  Solvation  Ediel_sol  =         0.00000000
  ---------------------------------------------------
  free energy    TOTEN  =       -25.21594929 eV

  energy without entropy =      -25.14693951  energy(sigma->0) =      -25.18144440


--------------------------------------------------------------------------------------------------------




--------------------------------------- Iteration      1(   3)  ---------------------------------------


     EDDAV:  cpu time    1.0915: real time    1.0941
       DOS:  cpu time    0.0009: real time    0.0010
    --------------------------------------------
      LOOP:  cpu time    1.0924: real time    1.0951

 eigenvalue-minimisations  :   952
 total energy-change (2. order) :-0.1352426E+03  (-0.1275832E+03)
 number of electron     109.0000000 magnetization 
 augmentation part      109.0000000 magnetization 

 Free energy of the ion-electron system (eV)
  ---------------------------------------------------
  alpha Z        PSCENC =       552.45270090
  Ewald energy   TEWEN  =     -4686.97330186
  -Hartree energ DENC   =     -1289.44686073
  -exchange      EXHF   =         0.00000000
  -V(xc)+E(xc)   XCENC  =      -768.31940792
  PAW double counting   =      5171.05454107    -4356.08836938
  entropy T*S    EENTRO =        -0.07492546
  eigenvalues    EBANDS =       529.45284864
  atomic energy  EATOM  =      4687.48422623
  Solvation  Ediel_sol  =         0.00000000
  ---------------------------------------------------
  free energy    TOTEN  =      -160.45854851 eV

  energy without entropy =     -160.38362305  energy(sigma->0) =     -160.42108578


--------------------------------------------------------------------------------------------------------




--------------------------------------- Iteration      1(   4)  ---------------------------------------


     EDDAV:  cpu time    1.0503: real time    1.0522
       DOS:  cpu time    0.0009: real time    0.0009
    --------------------------------------------
      LOOP:  cpu time    1.0511: real time    1.0530

 eigenvalue-minimisations  :   896
 total energy-change (2. order) :-0.1496657E+02  (-0.1420468E+02)
 number of electron     109.0000000 magnetization 
 augmentation part      109.0000000 magnetization 

 Free energy of the ion-electron system (eV)
  ---------------------------------------------------
  alpha Z        PSCENC =       552.45270090
  Ewald energy   TEWEN  =     -4686.97330186
  -Hartree energ DENC   =     -1289.44686073
  -exchange      EXHF   =         0.00000000
  -V(xc)+E(xc)   XCENC  =      -768.31940792
  PAW double counting   =      5171.05454107    -4356.08836938
  entropy T*S    EENTRO =        -0.10028740
  eigenvalues    EBANDS =       514.51164197
  atomic energy  EATOM  =      4687.48422623
  Solvation  Ediel_sol  =         0.00000000
  ---------------------------------------------------
  free energy    TOTEN  =      -175.42511713 eV

  energy without entropy =     -175.32482973  energy(sigma->0) =     -175.37497343


--------------------------------------------------------------------------------------------------------




--------------------------------------- Iteration      1(   5)  ---------------------------------------


     EDDAV:  cpu time    0.9870: real time    0.9889
       DOS:  cpu time    0.0009: real time    0.0009
    CHARGE:  cpu time    0.0332: real time    0.0332
    MIXING:  cpu time    0.0016: real time    0.0016
    --------------------------------------------
      LOOP:  cpu time    1.0227: real time    1.0245

 eigenvalue-minimisations  :   912
 total energy-change (2. order) :-0.8660703E+00  (-0.8049634E+00)
 number of electron     109.0000384 magnetization 
 augmentation part       39.1925402 magnetization 

 Broyden mixing:
  rms(total) = 0.57027E+01    rms(broyden)= 0.57015E+01
  rms(prec ) = 0.66234E+01
  weight for this iteration     100.00

 Free energy of the ion-electron system (eV)
  ---------------------------------------------------
  alpha Z        PSCENC =       552.45270090
  Ewald energy   TEWEN  =     -4686.97330186
  -Hartree energ DENC   =     -1289.44686073
  -exchange      EXHF   =         0.00000000
  -V(xc)+E(xc)   XCENC  =      -768.31940792
  PAW double counting   =      5171.05454107    -4356.08836938
  entropy T*S    EENTRO =        -0.10661364
  eigenvalues    EBANDS =       513.65189795
  atomic energy  EATOM  =      4687.48422623
  Solvation  Ediel_sol  =         0.00000000
  ---------------------------------------------------
  free energy    TOTEN  =      -176.29118738 eV

  energy without entropy =     -176.18457374  energy(sigma->0) =     -176.23788056


--------------------------------------------------------------------------------------------------------




--------------------------------------- Iteration      1(   6)  ---------------------------------------


    POTLOK:  cpu time    0.0342: real time    0.0342
    SETDIJ:  cpu time    0.0169: real time    0.0169
     EDDAV:  cpu time    0.9819: real time    0.9836
       DOS:  cpu time    0.0009: real time    0.0009
    CHARGE:  cpu time    0.0335: real time    0.0335
    MIXING:  cpu time    0.0018: real time    0.0018
    --------------------------------------------
      LOOP:  cpu time    1.0692: real time    1.0710

 eigenvalue-minimisations  :   912
 total energy-change (2. order) : 0.1805237E+01  (-0.1849622E+02)
 number of electron     109.0000388 magnetization 
 augmentation part       44.2955963 magnetization 

 Broyden mixing:
  rms(total) = 0.38798E+01    rms(broyden)= 0.38793E+01
  rms(prec ) = 0.68380E+01
  weight for this iteration     100.00

 eigenvalues of (default mixing * dielectric matrix)
  average eigenvalue GAMMA=   0.7849
  0.7849

 Free energy of the ion-electron system (eV)
  ---------------------------------------------------
  alpha Z        PSCENC =       552.45270090
  Ewald energy   TEWEN  =     -4686.97330186
  -Hartree energ DENC   =     -1230.16664530
  -exchange      EXHF   =         0.00000000
  -V(xc)+E(xc)   XCENC  =      -767.29666393
  PAW double counting   =      6960.02859381    -6147.31376186
  entropy T*S    EENTRO =        -0.12702988
  eigenvalues    EBANDS =       457.42593113
  atomic energy  EATOM  =      4687.48422623
  Solvation  Ediel_sol  =         0.00000000
  ---------------------------------------------------
  free energy    TOTEN  =      -174.48595076 eV

  energy without entropy =     -174.35892089  energy(sigma->0) =     -174.42243583


--------------------------------------------------------------------------------------------------------




--------------------------------------- Iteration      1(   7)  ---------------------------------------


    POTLOK:  cpu time    0.0340: real time    0.0341
    SETDIJ:  cpu time    0.0172: real time    0.0172
     EDDAV:  cpu time    1.1599: real time    1.1620
       DOS:  cpu time    0.0009: real time    0.0009
    CHARGE:  cpu time    0.0328: real time    0.0329
    MIXING:  cpu time    0.0021: real time    0.0021
    --------------------------------------------
      LOOP:  cpu time    1.2468: real time    1.2491

 eigenvalue-minimisations  :  1048
 total energy-change (2. order) :-0.4361457E+00  (-0.3848208E+02)
 number of electron     109.0000439 magnetization 
 augmentation part       45.4989388 magnetization 

 Broyden mixing:
  rms(total) = 0.30544E+01    rms(broyden)= 0.30532E+01
  rms(prec ) = 0.59243E+01
  weight for this iteration     100.00

 eigenvalues of (default mixing * dielectric matrix)
  average eigenvalue GAMMA=   0.7451
  1.2284  0.2619

 Free energy of the ion-electron system (eV)
  ---------------------------------------------------
  alpha Z        PSCENC =       552.45270090
  Ewald energy   TEWEN  =     -4686.97330186
  -Hartree energ DENC   =     -1201.12700830
  -exchange      EXHF   =         0.00000000
  -V(xc)+E(xc)   XCENC  =      -767.85618092
  PAW double counting   =      7379.92659823    -6569.34624803
  entropy T*S    EENTRO =        -0.09670811
  eigenvalues    EBANDS =       430.61382537
  atomic energy  EATOM  =      4687.48422623
  Solvation  Ediel_sol  =         0.00000000
  ---------------------------------------------------
  free energy    TOTEN  =      -174.92209649 eV

  energy without entropy =     -174.82538837  energy(sigma->0) =     -174.87374243


--------------------------------------------------------------------------------------------------------




--------------------------------------- Iteration      1(   8)  ---------------------------------------


    POTLOK:  cpu time    0.0404: real time    0.0406
    SETDIJ:  cpu time    0.0195: real time    0.0195
     EDDAV:  cpu time    1.1524: real time    1.1545
       DOS:  cpu time    0.0009: real time    0.0010
    CHARGE:  cpu time    0.0341: real time    0.0341
    MIXING:  cpu time    0.0021: real time    0.0021
    --------------------------------------------
      LOOP:  cpu time    1.2493: real time    1.2517

 eigenvalue-minimisations  :  1008
 total energy-change (2. order) : 0.7542237E+01  (-0.1201023E+02)
 number of electron     109.0000335 magnetization 
 augmentation part       44.1762399 magnetization 

 Broyden mixing:
  rms(total) = 0.24716E+01    rms(broyden)= 0.24710E+01
  rms(prec ) = 0.51259E+01
  weight for this iteration     100.00

 eigenvalues of (default mixing * dielectric matrix)
  average eigenvalue GAMMA=   0.5884
  1.2704  0.2800  0.2148

 Free energy of the ion-electron system (eV)
  ---------------------------------------------------
  alpha Z        PSCENC =       552.45270090
  Ewald energy   TEWEN  =     -4686.97330186
  -Hartree energ DENC   =     -1221.57685713
  -exchange      EXHF   =         0.00000000
  -V(xc)+E(xc)   XCENC  =      -766.44438798
  PAW double counting   =      8189.73494951    -7390.98439931
  entropy T*S    EENTRO =        -0.12884152
  eigenvalues    EBANDS =       469.05605132
  atomic energy  EATOM  =      4687.48422623
  Solvation  Ediel_sol  =         0.00000000
  ---------------------------------------------------
  free energy    TOTEN  =      -167.37985984 eV

  energy without entropy =     -167.25101832  energy(sigma->0) =     -167.31543908


--------------------------------------------------------------------------------------------------------




--------------------------------------- Iteration      1(   9)  ---------------------------------------


    POTLOK:  cpu time    0.0359: real time    0.0361
    SETDIJ:  cpu time    0.0179: real time    0.0179
     EDDAV:  cpu time    1.2159: real time    1.2181
       DOS:  cpu time    0.0010: real time    0.0010
    CHARGE:  cpu time    0.0318: real time    0.0318
    MIXING:  cpu time    0.0024: real time    0.0023
    --------------------------------------------
      LOOP:  cpu time    1.3048: real time    1.3072

 eigenvalue-minimisations  :  1088
 total energy-change (2. order) : 0.7616902E+01  (-0.3385876E+01)
 number of electron     109.0000404 magnetization 
 augmentation part       43.8265042 magnetization 

 Broyden mixing:
  rms(total) = 0.10527E+01    rms(broyden)= 0.10524E+01
  rms(prec ) = 0.18408E+01
  weight for this iteration     100.00

 eigenvalues of (default mixing * dielectric matrix)
  average eigenvalue GAMMA=   0.5579
  1.3717  0.3311  0.3311  0.1976

 Free energy of the ion-electron system (eV)
  ---------------------------------------------------
  alpha Z        PSCENC =       552.45270090
  Ewald energy   TEWEN  =     -4686.97330186
  -Hartree energ DENC   =     -1208.22076269
  -exchange      EXHF   =         0.00000000
  -V(xc)+E(xc)   XCENC  =      -766.84078813
  PAW double counting   =      8327.99308458    -7529.28230318
  entropy T*S    EENTRO =        -0.12958460
  eigenvalues    EBANDS =       463.75377049
  atomic energy  EATOM  =      4687.48422623
  Solvation  Ediel_sol  =         0.00000000
  ---------------------------------------------------
  free energy    TOTEN  =      -159.76295827 eV

  energy without entropy =     -159.63337367  energy(sigma->0) =     -159.69816597


--------------------------------------------------------------------------------------------------------




--------------------------------------- Iteration      1(  10)  ---------------------------------------


    POTLOK:  cpu time    0.0353: real time    0.0355
    SETDIJ:  cpu time    0.0174: real time    0.0181
     EDDAV:  cpu time    1.0057: real time    1.0077
       DOS:  cpu time    0.0009: real time    0.0009
    CHARGE:  cpu time    0.0348: real time    0.0349
    MIXING:  cpu time    0.0026: real time    0.0026
    --------------------------------------------
      LOOP:  cpu time    1.0967: real time    1.0996

 eigenvalue-minimisations  :   856
 total energy-change (2. order) : 0.7003885E+00  (-0.4434626E+00)
 number of electron     109.0000395 magnetization 
 augmentation part       43.8084881 magnetization 

 Broyden mixing:
  rms(total) = 0.84349E+00    rms(broyden)= 0.84340E+00
  rms(prec ) = 0.14251E+01
  weight for this iteration     100.00

 eigenvalues of (default mixing * dielectric matrix)
  average eigenvalue GAMMA=   0.5254
  1.4544  0.3965  0.3965  0.2005  0.1789

 Free energy of the ion-electron system (eV)
  ---------------------------------------------------
  alpha Z        PSCENC =       552.45270090
  Ewald energy   TEWEN  =     -4686.97330186
  -Hartree energ DENC   =     -1207.88142080
  -exchange      EXHF   =         0.00000000
  -V(xc)+E(xc)   XCENC  =      -766.58875203
  PAW double counting   =      8451.46285734    -7653.59299739
  entropy T*S    EENTRO =        -0.11151588
  eigenvalues    EBANDS =       464.68563373
  atomic energy  EATOM  =      4687.48422623
  Solvation  Ediel_sol  =         0.00000000
  ---------------------------------------------------
  free energy    TOTEN  =      -159.06256977 eV

  energy without entropy =     -158.95105389  energy(sigma->0) =     -159.00681183


--------------------------------------------------------------------------------------------------------




--------------------------------------- Iteration      1(  11)  ---------------------------------------


    POTLOK:  cpu time    0.0372: real time    0.0373
    SETDIJ:  cpu time    0.0176: real time    0.0176
     EDDAV:  cpu time    1.0282: real time    1.0302
       DOS:  cpu time    0.0009: real time    0.0009
    CHARGE:  cpu time    0.0310: real time    0.0311
    MIXING:  cpu time    0.0020: real time    0.0020
    --------------------------------------------
      LOOP:  cpu time    1.1170: real time    1.1191

 eigenvalue-minimisations  :   896
 total energy-change (2. order) : 0.5748191E+00  (-0.2800199E+00)
 number of electron     109.0000388 magnetization 
 augmentation part       44.1343642 magnetization 

 Broyden mixing:
  rms(total) = 0.51459E+00    rms(broyden)= 0.51452E+00
  rms(prec ) = 0.79096E+00
  weight for this iteration     100.00

 eigenvalues of (default mixing * dielectric matrix)
  average eigenvalue GAMMA=   0.5408
  1.3911  0.5670  0.5670  0.3155  0.2022  0.2022

 Free energy of the ion-electron system (eV)
  ---------------------------------------------------
  alpha Z        PSCENC =       552.45270090
  Ewald energy   TEWEN  =     -4686.97330186
  -Hartree energ DENC   =     -1202.96563519
  -exchange      EXHF   =         0.00000000
  -V(xc)+E(xc)   XCENC  =      -766.24857980
  PAW double counting   =      8747.35574789    -7950.73649659
  entropy T*S    EENTRO =        -0.12282556
  eigenvalues    EBANDS =       461.26641328
  atomic energy  EATOM  =      4687.48422623
  Solvation  Ediel_sol  =         0.00000000
  ---------------------------------------------------
  free energy    TOTEN  =      -158.48775071 eV

  energy without entropy =     -158.36492514  energy(sigma->0) =     -158.42633792


--------------------------------------------------------------------------------------------------------




--------------------------------------- Iteration      1(  12)  ---------------------------------------


    POTLOK:  cpu time    0.0343: real time    0.0344
    SETDIJ:  cpu time    0.0171: real time    0.0172
     EDDAV:  cpu time    1.2089: real time    1.2112
       DOS:  cpu time    0.0009: real time    0.0009
    CHARGE:  cpu time    0.0305: real time    0.0306
    MIXING:  cpu time    0.0023: real time    0.0023
    --------------------------------------------
      LOOP:  cpu time    1.2940: real time    1.2964

 eigenvalue-minimisations  :  1088
 total energy-change (2. order) :-0.3394228E-01  (-0.2110899E+00)
 number of electron     109.0000412 magnetization 
 augmentation part       44.3871832 magnetization 

 Broyden mixing:
  rms(total) = 0.49808E+00    rms(broyden)= 0.49794E+00
  rms(prec ) = 0.83659E+00
  weight for this iteration     100.00

 eigenvalues of (default mixing * dielectric matrix)
  average eigenvalue GAMMA=   0.6781
  1.5150  1.5150  0.7865  0.3519  0.2119  0.1831  0.1831

 Free energy of the ion-electron system (eV)
  ---------------------------------------------------
  alpha Z        PSCENC =       552.45270090
  Ewald energy   TEWEN  =     -4686.97330186
  -Hartree energ DENC   =     -1198.43608922
  -exchange      EXHF   =         0.00000000
  -V(xc)+E(xc)   XCENC  =      -766.41410183
  PAW double counting   =      8773.75140264    -7976.81425361
  entropy T*S    EENTRO =        -0.10194985
  eigenvalues    EBANDS =       456.52967361
  atomic energy  EATOM  =      4687.48422623
  Solvation  Ediel_sol  =         0.00000000
  ---------------------------------------------------
  free energy    TOTEN  =      -158.52169298 eV

  energy without entropy =     -158.41974314  energy(sigma->0) =     -158.47071806


--------------------------------------------------------------------------------------------------------




--------------------------------------- Iteration      1(  13)  ---------------------------------------


    POTLOK:  cpu time    0.0354: real time    0.0355
    SETDIJ:  cpu time    0.0176: real time    0.0177
     EDDAV:  cpu time    1.2284: real time    1.2307
       DOS:  cpu time    0.0010: real time    0.0010
    CHARGE:  cpu time    0.0334: real time    0.0335
    MIXING:  cpu time    0.0029: real time    0.0029
    --------------------------------------------
      LOOP:  cpu time    1.3188: real time    1.3213

 eigenvalue-minimisations  :  1080
 total energy-change (2. order) : 0.4071570E-01  (-0.9548831E-01)
 number of electron     109.0000401 magnetization 
 augmentation part       44.3317592 magnetization 

 Broyden mixing:
  rms(total) = 0.40002E+00    rms(broyden)= 0.39996E+00
  rms(prec ) = 0.77928E+00
  weight for this iteration     100.00

 eigenvalues of (default mixing * dielectric matrix)
  average eigenvalue GAMMA=   0.6966
  1.8012  1.8012  0.7191  0.3412  0.3412  0.2005  0.2005  0.1675

 Free energy of the ion-electron system (eV)
  ---------------------------------------------------
  alpha Z        PSCENC =       552.45270090
  Ewald energy   TEWEN  =     -4686.97330186
  -Hartree energ DENC   =     -1200.19552782
  -exchange      EXHF   =         0.00000000
  -V(xc)+E(xc)   XCENC  =      -766.16447942
  PAW double counting   =      8887.30358933    -8091.96635964
  entropy T*S    EENTRO =        -0.12514925
  eigenvalues    EBANDS =       459.70332427
  atomic energy  EATOM  =      4687.48422623
  Solvation  Ediel_sol  =         0.00000000
  ---------------------------------------------------
  free energy    TOTEN  =      -158.48097728 eV

  energy without entropy =     -158.35582803  energy(sigma->0) =     -158.41840266


--------------------------------------------------------------------------------------------------------




--------------------------------------- Iteration      1(  14)  ---------------------------------------


    POTLOK:  cpu time    0.0361: real time    0.0362
    SETDIJ:  cpu time    0.0176: real time    0.0176
     EDDAV:  cpu time    0.9908: real time    0.9933
       DOS:  cpu time    0.0009: real time    0.0009
    CHARGE:  cpu time    0.0307: real time    0.0307
    MIXING:  cpu time    0.0025: real time    0.0025
    --------------------------------------------
      LOOP:  cpu time    1.0784: real time    1.0811

 eigenvalue-minimisations  :   856
 total energy-change (2. order) : 0.1774103E+00  (-0.1043644E+00)
 number of electron     109.0000400 magnetization 
 augmentation part       44.4911018 magnetization 

 Broyden mixing:
  rms(total) = 0.17143E+00    rms(broyden)= 0.17138E+00
  rms(prec ) = 0.28338E+00
  weight for this iteration     100.00

 eigenvalues of (default mixing * dielectric matrix)
  average eigenvalue GAMMA=   0.7607
  2.0714  2.0714  0.9458  0.5831  0.3784  0.2227  0.2085  0.1824  0.1824

 Free energy of the ion-electron system (eV)
  ---------------------------------------------------
  alpha Z        PSCENC =       552.45270090
  Ewald energy   TEWEN  =     -4686.97330186
  -Hartree energ DENC   =     -1197.30962528
  -exchange      EXHF   =         0.00000000
  -V(xc)+E(xc)   XCENC  =      -765.99768227
  PAW double counting   =      9027.50236984    -8233.01993654
  entropy T*S    EENTRO =        -0.11802446
  eigenvalues    EBANDS =       457.67570646
  atomic energy  EATOM  =      4687.48422623
  Solvation  Ediel_sol  =         0.00000000
  ---------------------------------------------------
  free energy    TOTEN  =      -158.30356699 eV

  energy without entropy =     -158.18554252  energy(sigma->0) =     -158.24455476


--------------------------------------------------------------------------------------------------------




--------------------------------------- Iteration      1(  15)  ---------------------------------------


    POTLOK:  cpu time    0.0347: real time    0.0348
    SETDIJ:  cpu time    0.0176: real time    0.0177
     EDDAV:  cpu time    1.0278: real time    1.0297
       DOS:  cpu time    0.0009: real time    0.0009
    CHARGE:  cpu time    0.0311: real time    0.0313
    MIXING:  cpu time    0.0027: real time    0.0027
    --------------------------------------------
      LOOP:  cpu time    1.1149: real time    1.1170

 eigenvalue-minimisations  :   904
 total energy-change (2. order) : 0.1012115E-01  (-0.3060670E-01)
 number of electron     109.0000401 magnetization 
 augmentation part       44.5953098 magnetization 

 Broyden mixing:
  rms(total) = 0.10270E+00    rms(broyden)= 0.10267E+00
  rms(prec ) = 0.18969E+00
  weight for this iteration     100.00

 eigenvalues of (default mixing * dielectric matrix)
  average eigenvalue GAMMA=   0.7179
  2.0600  2.0600  0.9628  0.6148  0.3514  0.2783  0.2783  0.1734  0.1998  0.1998

 Free energy of the ion-electron system (eV)
  ---------------------------------------------------
  alpha Z        PSCENC =       552.45270090
  Ewald energy   TEWEN  =     -4686.97330186
  -Hartree energ DENC   =     -1196.06763067
  -exchange      EXHF   =         0.00000000
  -V(xc)+E(xc)   XCENC  =      -765.89082182
  PAW double counting   =      9136.74642916    -8343.04361382
  entropy T*S    EENTRO =        -0.11524451
  eigenvalues    EBANDS =       457.11381056
  atomic energy  EATOM  =      4687.48422623
  Solvation  Ediel_sol  =         0.00000000
  ---------------------------------------------------
  free energy    TOTEN  =      -158.29344583 eV

  energy without entropy =     -158.17820132  energy(sigma->0) =     -158.23582358


--------------------------------------------------------------------------------------------------------




--------------------------------------- Iteration      1(  16)  ---------------------------------------


    POTLOK:  cpu time    0.0358: real time    0.0365
    SETDIJ:  cpu time    0.0179: real time    0.0179
     EDDAV:  cpu time    0.9513: real time    0.9533
       DOS:  cpu time    0.0009: real time    0.0009
    CHARGE:  cpu time    0.0315: real time    0.0315
    MIXING:  cpu time    0.0025: real time    0.0026
    --------------------------------------------
      LOOP:  cpu time    1.0399: real time    1.0428

 eigenvalue-minimisations  :   880
 total energy-change (2. order) : 0.4993986E-02  (-0.6383415E-02)
 number of electron     109.0000401 magnetization 
 augmentation part       44.5981497 magnetization 

 Broyden mixing:
  rms(total) = 0.71291E-01    rms(broyden)= 0.71285E-01
  rms(prec ) = 0.13833E+00
  weight for this iteration     100.00

 eigenvalues of (default mixing * dielectric matrix)
  average eigenvalue GAMMA=   0.7561
  2.4742  1.6345  1.1281  1.1281  0.5353  0.3916  0.2496  0.1759  0.1895  0.2050
  0.2050

 Free energy of the ion-electron system (eV)
  ---------------------------------------------------
  alpha Z        PSCENC =       552.45270090
  Ewald energy   TEWEN  =     -4686.97330186
  -Hartree energ DENC   =     -1195.96165899
  -exchange      EXHF   =         0.00000000
  -V(xc)+E(xc)   XCENC  =      -765.88658600
  PAW double counting   =      9142.93417156    -8349.29930471
  entropy T*S    EENTRO =        -0.11574245
  eigenvalues    EBANDS =       457.07704348
  atomic energy  EATOM  =      4687.48422623
  Solvation  Ediel_sol  =         0.00000000
  ---------------------------------------------------
  free energy    TOTEN  =      -158.28845185 eV

  energy without entropy =     -158.17270940  energy(sigma->0) =     -158.23058062


--------------------------------------------------------------------------------------------------------




--------------------------------------- Iteration      1(  17)  ---------------------------------------


    POTLOK:  cpu time    0.0334: real time    0.0334
    SETDIJ:  cpu time    0.0169: real time    0.0169
     EDDAV:  cpu time    0.9623: real time    0.9641
       DOS:  cpu time    0.0010: real time    0.0010
    CHARGE:  cpu time    0.0335: real time    0.0335
    MIXING:  cpu time    0.0029: real time    0.0029
    --------------------------------------------
      LOOP:  cpu time    1.0499: real time    1.0517

 eigenvalue-minimisations  :   872
 total energy-change (2. order) : 0.4434384E-02  (-0.2693490E-02)
 number of electron     109.0000401 magnetization 
 augmentation part       44.5895229 magnetization 

 Broyden mixing:
  rms(total) = 0.27762E-01    rms(broyden)= 0.27747E-01
  rms(prec ) = 0.47616E-01
  weight for this iteration     100.00

 eigenvalues of (default mixing * dielectric matrix)
  average eigenvalue GAMMA=   0.7930
  2.3213  1.6050  1.3997  1.3997  0.8453  0.5455  0.3908  0.2385  0.1762  0.2040
  0.2040  0.1860

 Free energy of the ion-electron system (eV)
  ---------------------------------------------------
  alpha Z        PSCENC =       552.45270090
  Ewald energy   TEWEN  =     -4686.97330186
  -Hartree energ DENC   =     -1196.01185152
  -exchange      EXHF   =         0.00000000
  -V(xc)+E(xc)   XCENC  =      -765.87863123
  PAW double counting   =      9161.65176460    -8368.24860406
  entropy T*S    EENTRO =        -0.11614827
  eigenvalues    EBANDS =       457.35582775
  atomic energy  EATOM  =      4687.48422623
  Solvation  Ediel_sol  =         0.00000000
  ---------------------------------------------------
  free energy    TOTEN  =      -158.28401746 eV

  energy without entropy =     -158.16786919  energy(sigma->0) =     -158.22594333


--------------------------------------------------------------------------------------------------------




--------------------------------------- Iteration      1(  18)  ---------------------------------------


    POTLOK:  cpu time    0.0349: real time    0.0350
    SETDIJ:  cpu time    0.0178: real time    0.0179
     EDDAV:  cpu time    0.9530: real time    0.9548
       DOS:  cpu time    0.0009: real time    0.0009
    CHARGE:  cpu time    0.0343: real time    0.0343
    MIXING:  cpu time    0.0030: real time    0.0030
    --------------------------------------------
      LOOP:  cpu time    1.0440: real time    1.0460

 eigenvalue-minimisations  :   872
 total energy-change (2. order) : 0.6021182E-03  (-0.4346050E-03)
 number of electron     109.0000402 magnetization 
 augmentation part       44.5817023 magnetization 

 Broyden mixing:
  rms(total) = 0.97121E-02    rms(broyden)= 0.97061E-02
  rms(prec ) = 0.17497E-01
  weight for this iteration     100.00

 eigenvalues of (default mixing * dielectric matrix)
  average eigenvalue GAMMA=   0.8411
  2.4904  1.7556  1.7556  1.0628  0.9654  0.9654  0.5377  0.3916  0.2390  0.1762
  0.1864  0.2042  0.2042

 Free energy of the ion-electron system (eV)
  ---------------------------------------------------
  alpha Z        PSCENC =       552.45270090
  Ewald energy   TEWEN  =     -4686.97330186
  -Hartree energ DENC   =     -1196.13315221
  -exchange      EXHF   =         0.00000000
  -V(xc)+E(xc)   XCENC  =      -765.88799192
  PAW double counting   =      9157.56021452    -8364.12657500
  entropy T*S    EENTRO =        -0.11593508
  eigenvalues    EBANDS =       457.45639907
  atomic energy  EATOM  =      4687.48422623
  Solvation  Ediel_sol  =         0.00000000
  ---------------------------------------------------
  free energy    TOTEN  =      -158.28341535 eV

  energy without entropy =     -158.16748026  energy(sigma->0) =     -158.22544780


--------------------------------------------------------------------------------------------------------




--------------------------------------- Iteration      1(  19)  ---------------------------------------


    POTLOK:  cpu time    0.0351: real time    0.0351
    SETDIJ:  cpu time    0.0172: real time    0.0172
     EDDAV:  cpu time    0.9730: real time    0.9750
       DOS:  cpu time    0.0009: real time    0.0009
    CHARGE:  cpu time    0.0310: real time    0.0311
    MIXING:  cpu time    0.0029: real time    0.0029
    --------------------------------------------
      LOOP:  cpu time    1.0601: real time    1.0622

 eigenvalue-minimisations  :   896
 total energy-change (2. order) : 0.2546917E-04  (-0.9322341E-04)
 number of electron     109.0000402 magnetization 
 augmentation part       44.5774528 magnetization 

 Broyden mixing:
  rms(total) = 0.21509E-02    rms(broyden)= 0.21445E-02
  rms(prec ) = 0.30829E-02
  weight for this iteration     100.00

 eigenvalues of (default mixing * dielectric matrix)
  average eigenvalue GAMMA=   0.8673
  2.5335  1.7805  1.7805  1.1650  1.0902  1.0902  0.7639  0.5364  0.3917  0.2390
  0.1762  0.1864  0.2042  0.2042

 Free energy of the ion-electron system (eV)
  ---------------------------------------------------
  alpha Z        PSCENC =       552.45270090
  Ewald energy   TEWEN  =     -4686.97330186
  -Hartree energ DENC   =     -1196.17076424
  -exchange      EXHF   =         0.00000000
  -V(xc)+E(xc)   XCENC  =      -765.88702746
  PAW double counting   =      9161.68282800    -8368.28562304
  entropy T*S    EENTRO =        -0.11587734
  eigenvalues    EBANDS =       457.52944893
  atomic energy  EATOM  =      4687.48422623
  Solvation  Ediel_sol  =         0.00000000
  ---------------------------------------------------
  free energy    TOTEN  =      -158.28338988 eV

  energy without entropy =     -158.16751253  energy(sigma->0) =     -158.22545120


--------------------------------------------------------------------------------------------------------




--------------------------------------- Iteration      1(  20)  ---------------------------------------


    POTLOK:  cpu time    0.0337: real time    0.0338
    SETDIJ:  cpu time    0.0169: real time    0.0170
     EDDAV:  cpu time    0.7609: real time    0.7626
       DOS:  cpu time    0.0009: real time    0.0010
    --------------------------------------------
      LOOP:  cpu time    0.8125: real time    0.8143

 eigenvalue-minimisations  :   616
 total energy-change (2. order) :-0.9354144E-06  (-0.4967902E-05)
 number of electron     109.0000402 magnetization 
 augmentation part       44.5774528 magnetization 

 Free energy of the ion-electron system (eV)
  ---------------------------------------------------
  alpha Z        PSCENC =       552.45270090
  Ewald energy   TEWEN  =     -4686.97330186
  -Hartree energ DENC   =     -1196.16185584
  -exchange      EXHF   =         0.00000000
  -V(xc)+E(xc)   XCENC  =      -765.88632782
  PAW double counting   =      9162.30281705    -8368.89653989
  entropy T*S    EENTRO =        -0.11590364
  eigenvalues    EBANDS =       457.51079406
  atomic energy  EATOM  =      4687.48422623
  Solvation  Ediel_sol  =         0.00000000
  ---------------------------------------------------
  free energy    TOTEN  =      -158.28339081 eV

  energy without entropy =     -158.16748717  energy(sigma->0) =     -158.22543899


--------------------------------------------------------------------------------------------------------




 average (electrostatic) potential at core
  the test charge radii are     1.2064  1.0103
  (the norm of the test charge is              1.0000)
       1 -38.8906       2 -38.8905       3 -38.8906       4 -38.8906       5 -38.8905
       6 -38.8906       7 -38.9166       8 -38.9165       9 -38.9165      10 -39.1522
      11 -39.1522      12 -39.1522      13 -39.4757      14 -38.9754      15 -38.9754
      16 -38.9754      17 -38.9659      18 -43.1051      19 -43.1050      20 -43.1050
 
 
 
 E-fermi :   6.4423     XC(G=0): -12.3335     alpha+bet :-15.2488


 k-point     1 :       0.0000    0.0000    0.0000
  band No.  band energies     occupation 
      1      -0.4686      2.00000
      2       1.6755      2.00000
      3       1.6755      2.00000
      4       1.9904      2.00000
      5       1.9904      2.00000
      6       2.0816      2.00000
      7       2.2775      2.00000
      8       2.2776      2.00000
      9       2.4735      2.00000
     10       2.5248      2.00000
     11       2.5248      2.00000
     12       2.5986      2.00000
     13       2.6963      2.00000
     14       2.9062      2.00000
     15       2.9062      2.00000
     16       3.0623      2.00000
     17       3.4451      2.00000
     18       3.4451      2.00000
     19       3.4535      2.00000
     20       3.5561      2.00000
     21       3.5561      2.00000
     22       3.7737      2.00000
     23       3.8008      2.00000
     24       3.9000      2.00000
     25       3.9000      2.00000
     26       4.0746      2.00000
     27       4.0757      2.00000
     28       4.0757      2.00000
     29       4.3769      2.00000
     30       4.4464      2.00000
     31       4.4464      2.00000
     32       4.9484      2.00000
     33       5.0045      2.00000
     34       5.0045      2.00000
     35       5.0105      2.00000
     36       5.0105      2.00000
     37       5.1990      2.00000
     38       5.3493      2.00000
     39       5.4486      2.00000
     40       5.5513      2.00000
     41       5.5513      2.00000
     42       5.6294      2.00000
     43       5.7284      2.00000
     44       5.7284      2.00000
     45       5.9967      2.00000
     46       6.0826      2.00000
     47       6.1640      1.99992
     48       6.1640      1.99992
     49       6.3423      1.84261
     50       6.3423      1.84261
     51       6.4024      1.42688
     52       6.4024      1.42680
     53       6.4300      1.13723
     54       6.5553      0.10989
     55       6.6069      0.01988
     56       6.6151      0.01448
     57       6.6152      0.01448
     58       6.6774      0.00088
     59       6.6774      0.00088
     60       6.8483      0.00000
     61       6.8483      0.00000
     62       6.9631      0.00000
     63       6.9631      0.00000
     64       7.0506      0.00000
     65       7.5269      0.00000
     66       7.5388      0.00000
     67       7.6343      0.00000
     68       7.6628      0.00000

 k-point     2 :       0.5000   -0.0000    0.0000
  band No.  band energies     occupation 
      1       0.1157      2.00000
      2       0.5570      2.00000
      3       1.4581      2.00000
      4       1.8885      2.00000
      5       1.9949      2.00000
      6       2.1042      2.00000
      7       2.2260      2.00000
      8       2.2590      2.00000
      9       2.3559      2.00000
     10       2.4983      2.00000
     11       2.6399      2.00000
     12       2.6665      2.00000
     13       2.8237      2.00000
     14       2.9918      2.00000
     15       3.0574      2.00000
     16       3.1657      2.00000
     17       3.4352      2.00000
     18       3.4903      2.00000
     19       3.5418      2.00000
     20       3.6081      2.00000
     21       3.6314      2.00000
     22       3.6753      2.00000
     23       3.8249      2.00000
     24       3.8589      2.00000
     25       4.0343      2.00000
     26       4.1421      2.00000
     27       4.1583      2.00000
     28       4.2603      2.00000
     29       4.3516      2.00000
     30       4.4387      2.00000
     31       4.6620      2.00000
     32       4.8701      2.00000
     33       4.9339      2.00000
     34       4.9729      2.00000
     35       5.0743      2.00000
     36       5.2120      2.00000
     37       5.2387      2.00000
     38       5.3152      2.00000
     39       5.5043      2.00000
     40       5.5210      2.00000
     41       5.6444      2.00000
     42       5.7466      2.00000
     43       5.7816      2.00000
     44       5.8826      2.00000
     45       5.8926      2.00000
     46       6.0041      2.00000
     47       6.0607      2.00000
     48       6.0952      2.00000
     49       6.1777      1.99982
     50       6.1936      1.99956
     51       6.3029      1.95118
     52       6.3061      1.94587
     53       6.4068      1.38370
     54       6.4823      0.57107
     55       6.4877      0.52024
     56       6.7248      0.00006
     57       6.7825      0.00000
     58       6.8627      0.00000
     59       6.8741      0.00000
     60       6.8822      0.00000
     61       7.0672      0.00000
     62       7.0771      0.00000
     63       7.1177      0.00000
     64       7.1370      0.00000
     65       7.3301      0.00000
     66       7.4093      0.00000
     67       7.4673      0.00000
     68       7.4874      0.00000

 k-point     3 :       0.0000    0.0000    0.3333
  band No.  band energies     occupation 
      1       0.5070      2.00000
      2       2.1443      2.00000
      3       2.1602      2.00000
      4       2.4193      2.00000
      5       2.4235      2.00000
      6       2.5118      2.00000
      7       2.5289      2.00000
      8       2.5813      2.00000
      9       2.6708      2.00000
     10       2.8311      2.00000
     11       2.8699      2.00000
     12       2.9183      2.00000
     13       3.0104      2.00000
     14       3.0927      2.00000
     15       3.0975      2.00000
     16       3.1850      2.00000
     17       3.4261      2.00000
     18       3.5399      2.00000
     19       3.6117      2.00000
     20       3.6915      2.00000
     21       3.7142      2.00000
     22       3.8142      2.00000
     23       3.8434      2.00000
     24       3.9544      2.00000
     25       3.9686      2.00000
     26       4.0330      2.00000
     27       4.0662      2.00000
     28       4.0840      2.00000
     29       4.2241      2.00000
     30       4.2500      2.00000
     31       4.4386      2.00000
     32       4.5571      2.00000
     33       4.6793      2.00000
     34       4.7323      2.00000
     35       4.8329      2.00000
     36       5.0257      2.00000
     37       5.0801      2.00000
     38       5.0934      2.00000
     39       5.2753      2.00000
     40       5.3172      2.00000
     41       5.3395      2.00000
     42       5.3987      2.00000
     43       5.4702      2.00000
     44       5.6689      2.00000
     45       5.6724      2.00000
     46       5.6983      2.00000
     47       5.7917      2.00000
     48       5.8947      2.00000
     49       5.9054      2.00000
     50       6.0032      2.00000
     51       6.0489      2.00000
     52       6.1954      1.99952
     53       6.2113      1.99891
     54       6.2905      1.96810
     55       6.3038      1.94983
     56       6.3485      1.81510
     57       6.5297      0.21632
     58       6.5980      0.02761
     59       6.6563      0.00247
     60       6.7449      0.00002
     61       7.0983      0.00000
     62       7.1477      0.00000
     63       7.1491      0.00000
     64       7.1823      0.00000
     65       7.2342      0.00000
     66       7.3869      0.00000
     67       7.4952      0.00000
     68       7.5691      0.00000

 k-point     4 :       0.5000   -0.0000    0.3333
  band No.  band energies     occupation 
      1       0.9966      2.00000
      2       1.3824      2.00000
      3       2.0478      2.00000
      4       2.2224      2.00000
      5       2.3636      2.00000
      6       2.4762      2.00000
      7       2.5776      2.00000
      8       2.6309      2.00000
      9       2.7433      2.00000
     10       2.7989      2.00000
     11       2.8762      2.00000
     12       2.9638      2.00000
     13       3.0398      2.00000
     14       3.1526      2.00000
     15       3.2065      2.00000
     16       3.2978      2.00000
     17       3.4258      2.00000
     18       3.4763      2.00000
     19       3.6195      2.00000
     20       3.6916      2.00000
     21       3.6993      2.00000
     22       3.8438      2.00000
     23       3.8987      2.00000
     24       4.0118      2.00000
     25       4.0163      2.00000
     26       4.0490      2.00000
     27       4.1228      2.00000
     28       4.2063      2.00000
     29       4.3428      2.00000
     30       4.3662      2.00000
     31       4.4516      2.00000
     32       4.4741      2.00000
     33       4.5865      2.00000
     34       4.7182      2.00000
     35       4.7663      2.00000
     36       4.9190      2.00000
     37       4.9640      2.00000
     38       5.0029      2.00000
     39       5.0628      2.00000
     40       5.2008      2.00000
     41       5.3450      2.00000
     42       5.3871      2.00000
     43       5.5194      2.00000
     44       5.5593      2.00000
     45       5.6494      2.00000
     46       5.7712      2.00000
     47       5.8239      2.00000
     48       5.8941      2.00000
     49       5.9844      2.00000
     50       6.0614      2.00000
     51       6.1386      1.99998
     52       6.1962      1.99950
     53       6.2492      1.99366
     54       6.2893      1.96950
     55       6.3725      1.67607
     56       6.4875      0.52211
     57       6.6065      0.02022
     58       6.6761      0.00094
     59       6.7032      0.00022
     60       6.8250      0.00000
     61       6.8883      0.00000
     62       7.0401      0.00000
     63       7.1316      0.00000
     64       7.2162      0.00000
     65       7.2715      0.00000
     66       7.4330      0.00000
     67       7.5762      0.00000
     68       7.6432      0.00000


--------------------------------------------------------------------------------------------------------


 soft charge-density along one line, spin component           1
         0         1         2         3         4         5         6         7         8         9
 total charge-density along one line
 
 pseudopotential strength for first ion, spin component:           1
 -1.039  -0.013   0.005  -0.013   0.006  -1.571  -0.013   0.005
 -0.013  -1.089   0.010   0.009   0.015  -0.013  -1.620   0.010
  0.005   0.010  -1.058  -0.015  -0.025   0.005   0.010  -1.590
 -0.013   0.009  -0.015  -1.022  -0.002  -0.012   0.009  -0.015
  0.006   0.015  -0.025  -0.002  -1.057   0.006   0.014  -0.024
 -1.571  -0.013   0.005  -0.012   0.006  -2.051  -0.013   0.004
 -0.013  -1.620   0.010   0.009   0.014  -0.013  -2.100   0.010
  0.005   0.010  -1.590  -0.015  -0.024   0.004   0.010  -2.070
 -0.012   0.009  -0.015  -1.555  -0.001  -0.012   0.009  -0.015
  0.006   0.014  -0.024  -0.001  -1.588   0.006   0.014  -0.024
 -0.001   0.004  -0.005   0.004  -0.007  -0.001   0.003  -0.004
  0.000  -0.008   0.017  -0.010   0.007   0.001  -0.007   0.016
  0.011  -0.099   0.041   0.005   0.063   0.010  -0.098   0.042
  0.005  -0.048  -0.111   0.009   0.001   0.005  -0.047  -0.109
 -0.056   0.005  -0.015  -0.097   0.024  -0.056   0.005  -0.015
 -0.014   0.119  -0.047  -0.003  -0.075  -0.013   0.118  -0.048
 -0.003   0.066   0.135  -0.013  -0.001  -0.004   0.065   0.133
  0.071  -0.003   0.014   0.118  -0.022   0.072  -0.004   0.014
 total augmentation occupancy for first ion, spin component:           1
  1.279  -0.150   0.204  -0.165   0.100  -1.973   0.282  -0.297   0.252  -0.116   0.243   0.008   0.023   0.015   0.167   0.006
 -0.150   1.185   0.240  -0.078   0.291   0.275  -1.893  -0.377   0.125  -0.443   0.268   0.009  -0.020   0.235   0.004  -0.011
  0.204   0.240   1.235  -0.237   0.306  -0.297  -0.382  -1.925   0.355  -0.407   0.036   0.005  -0.040   0.060  -0.066   0.006
 -0.165  -0.078  -0.237   1.001   0.004   0.247   0.125   0.356  -1.660  -0.039   0.279   0.006   0.004  -0.008   0.021   0.005
  0.100   0.291   0.306   0.004   0.911  -0.113  -0.449  -0.407  -0.040  -1.423   0.229   0.003  -0.139   0.023   0.082   0.004
 -1.973   0.275  -0.297   0.247  -0.113   3.333  -0.396   0.395  -0.349   0.042  -0.257  -0.011  -0.046  -0.013  -0.233  -0.004
  0.282  -1.893  -0.382   0.125  -0.449  -0.396   3.550   0.482  -0.177   0.604  -0.352  -0.013  -0.024  -0.305  -0.007   0.033
 -0.297  -0.377  -1.925   0.356  -0.407   0.395   0.482   3.433  -0.408   0.469   0.084  -0.010   0.066  -0.145   0.061  -0.017
  0.252   0.125   0.355  -1.660  -0.040  -0.349  -0.177  -0.408   3.179  -0.026  -0.349  -0.010  -0.009   0.000  -0.118  -0.008
 -0.116  -0.443  -0.407  -0.039  -1.423   0.042   0.604   0.469  -0.026   2.817  -0.292  -0.001   0.199  -0.015  -0.083  -0.018
  0.243   0.268   0.036   0.279   0.229  -0.257  -0.352   0.084  -0.349  -0.292   2.144   0.038  -0.182   0.010  -0.067   0.010
  0.008   0.009   0.005   0.006   0.003  -0.011  -0.013  -0.010  -0.010  -0.001   0.038   0.001  -0.001   0.005  -0.003   0.000
  0.023  -0.020  -0.040   0.004  -0.139  -0.046  -0.024   0.066  -0.009   0.199  -0.182  -0.001   0.377  -0.053  -0.035   0.004
  0.015   0.235   0.060  -0.008   0.023  -0.013  -0.305  -0.145   0.000  -0.015   0.010   0.005  -0.053   0.284  -0.026  -0.001
  0.167   0.004  -0.066   0.021   0.082  -0.233  -0.007   0.061  -0.118  -0.083  -0.067  -0.003  -0.035  -0.026   0.318  -0.001
  0.006  -0.011   0.006   0.005   0.004  -0.004   0.033  -0.017  -0.008  -0.018   0.010   0.000   0.004  -0.001  -0.001   0.001
  0.004   0.002  -0.014   0.005   0.001  -0.007  -0.002   0.034  -0.002  -0.004   0.025   0.000  -0.002   0.003  -0.001  -0.000
 -0.002   0.005  -0.005  -0.012   0.008   0.008  -0.009   0.013   0.029  -0.021  -0.008  -0.000  -0.002  -0.001   0.005  -0.000


------------------------ aborting loop because EDIFF is reached ----------------------------------------


    CHARGE:  cpu time    0.0322: real time    0.0323
    FORLOC:  cpu time    0.0107: real time    0.0107
    FORNL :  cpu time    0.5952: real time    0.5959
    STRESS:  cpu time    0.6541: real time    0.6556
    FORCOR:  cpu time    0.0473: real time    0.0474
    FORHAR:  cpu time    0.0151: real time    0.0151
    MIXING:  cpu time    0.0034: real time    0.0034
    OFIELD:  cpu time    0.0001: real time    0.0001

  FORCE on cell =-STRESS in cart. coord.  units (eV):
  Direction    XX          YY          ZZ          XY          YZ          ZX
  --------------------------------------------------------------------------------------
  Alpha Z   552.45270   552.45270   552.45270
  Ewald   -1803.89413 -1803.89589 -1079.19714    -0.00163    -0.00001     0.00001
  Hartree   227.04665   227.04603   742.11636    -0.00055    -0.00000     0.00000
  E(xc)    -514.29654  -514.29661  -516.00632    -0.00006     0.00002     0.00001
  Local     340.06493   340.06605  -874.75547     0.00101    -0.00003    -0.00002
  n-local  -101.13846  -100.14158   -99.23011    -0.86464    -0.74988     0.44142
  augment   447.32081   447.32208   442.10642     0.00113     0.00005     0.00003
  Kinetic   900.36064   900.27105   886.32896     0.07730    -1.03630     0.59817
  Fock        0.00000     0.00000     0.00000     0.00000     0.00000     0.00000
[...]
     31       4.3739      2.00000
     32       4.3851      2.00000
     33       4.4075      2.00000
     34       4.5064      2.00000
     35       4.5116      2.00000
     36       4.6187      2.00000
     37       4.6306      2.00000
     38       4.6844      2.00000
     39       4.7654      2.00000
     40       4.7694      2.00000
     41       4.8964      2.00000
     42       4.9622      2.00000
     43       4.9926      2.00000
     44       5.1727      2.00000
     45       5.2473      2.00000
     46       5.4564      2.00000
     47       5.4757      2.00000
     48       5.5187      2.00000
     49       5.6094      2.00000
     50       5.6373      2.00000
     51       5.7782      1.99997
     52       5.8835      1.99210
     53       5.9158      1.97220
     54       5.9960      1.71342
     55       6.0232      1.50418
     56       6.2234      0.03153
     57       6.2684      0.00532
     58       6.4371      0.00000
     59       6.4770      0.00000
     60       6.5433      0.00000
     61       6.5936      0.00000
     62       6.7485      0.00000
     63       6.7622      0.00000
     64       6.7692      0.00000
     65       6.8533      0.00000
     66       6.9746      0.00000
     67       7.0595      0.00000
     68       7.1177      0.00000

 k-point     3 :       0.0000    0.0000    0.3333
  band No.  band energies     occupation 
      1       0.1274      2.00000
      2       2.1587      2.00000
      3       2.1811      2.00000
      4       2.1811      2.00000
      5       2.4936      2.00000
      6       2.4936      2.00000
      7       2.5362      2.00000
      8       2.7144      2.00000
      9       2.7144      2.00000
     10       2.8872      2.00000
     11       2.9793      2.00000
     12       3.0374      2.00000
     13       3.0375      2.00000
     14       3.2556      2.00000
     15       3.3310      2.00000
     16       3.3311      2.00000
     17       3.4682      2.00000
     18       3.4682      2.00000
     19       3.5403      2.00000
     20       3.5848      2.00000
     21       3.5848      2.00000
     22       3.6858      2.00000
     23       3.9049      2.00000
     24       3.9884      2.00000
     25       3.9884      2.00000
     26       4.1552      2.00000
     27       4.1829      2.00000
     28       4.1829      2.00000
     29       4.3597      2.00000
     30       4.4313      2.00000
     31       4.4313      2.00000
     32       4.5503      2.00000
     33       4.5504      2.00000
     34       4.6618      2.00000
     35       4.7634      2.00000
     36       4.8544      2.00000
     37       4.9568      2.00000
     38       4.9568      2.00000
     39       5.0316      2.00000
     40       5.0316      2.00000
     41       5.0994      2.00000
     42       5.1956      2.00000
     43       5.2832      2.00000
     44       5.2832      2.00000
     45       5.3395      2.00000
     46       5.4200      2.00000
     47       5.4200      2.00000
     48       5.6062      2.00000
     49       5.6254      2.00000
     50       5.6254      2.00000
     51       5.7392      2.00000
     52       5.7837      1.99995
     53       5.7837      1.99995
     54       5.9885      1.75854
     55       5.9885      1.75846
     56       6.1359      0.36137
     57       6.3009      0.00117
     58       6.3388      0.00016
     59       6.3388      0.00015
     60       6.4124      0.00000
     61       6.5087      0.00000
     62       6.5087      0.00000
     63       6.5736      0.00000
     64       6.6081      0.00000
     65       6.8467      0.00000
     66       6.8467      0.00000
     67       6.9161      0.00000
     68       6.9624      0.00000

 k-point     4 :       0.5000   -0.0000    0.3333
  band No.  band energies     occupation 
      1       0.7806      2.00000
      2       0.9843      2.00000
      3       1.9870      2.00000
      4       2.2117      2.00000
      5       2.3721      2.00000
      6       2.5991      2.00000
      7       2.7216      2.00000
      8       2.7594      2.00000
      9       2.7795      2.00000
     10       2.9329      2.00000
     11       3.0412      2.00000
     12       3.0807      2.00000
     13       3.0851      2.00000
     14       3.1536      2.00000
     15       3.3143      2.00000
     16       3.3731      2.00000
     17       3.4423      2.00000
     18       3.5430      2.00000
     19       3.5900      2.00000
     20       3.6091      2.00000
     21       3.6625      2.00000
     22       3.8038      2.00000
     23       3.9206      2.00000
     24       4.0492      2.00000
     25       4.0525      2.00000
     26       4.1132      2.00000
     27       4.2083      2.00000
     28       4.2355      2.00000
     29       4.2579      2.00000
     30       4.3447      2.00000
     31       4.4105      2.00000
     32       4.4454      2.00000
     33       4.5361      2.00000
     34       4.6226      2.00000
     35       4.6979      2.00000
     36       4.7980      2.00000
     37       4.8124      2.00000
     38       4.8993      2.00000
     39       4.9537      2.00000
     40       4.9910      2.00000
     41       5.0423      2.00000
     42       5.1227      2.00000
     43       5.2142      2.00000
     44       5.2586      2.00000
     45       5.4056      2.00000
     46       5.4276      2.00000
     47       5.4929      2.00000
     48       5.5491      2.00000
     49       5.6896      2.00000
     50       5.6973      2.00000
     51       5.8606      1.99711
     52       5.8922      1.98873
     53       5.9601      1.88432
     54       6.0313      1.42905
     55       6.0385      1.35725
     56       6.2195      0.03608
     57       6.2532      0.01011
     58       6.2747      0.00403
     59       6.4750      0.00000
     60       6.5135      0.00000
     61       6.5782      0.00000
     62       6.6717      0.00000
     63       6.7215      0.00000
     64       6.7643      0.00000
     65       6.8888      0.00000
     66       6.9509      0.00000
     67       7.0209      0.00000
     68       7.0534      0.00000


--------------------------------------------------------------------------------------------------------


 soft charge-density along one line, spin component           1
         0         1         2         3         4         5         6         7         8         9
 total charge-density along one line
 
 pseudopotential strength for first ion, spin component:           1
 -1.525   0.006   0.019   0.003   0.002  -2.034   0.006   0.018
  0.006  -1.479   0.001  -0.014  -0.004   0.006  -1.991   0.001
  0.019   0.001  -1.492   0.001   0.011   0.018   0.001  -2.005
  0.003  -0.014   0.001  -1.496   0.006   0.003  -0.014   0.001
  0.002  -0.004   0.011   0.006  -1.527   0.002  -0.004   0.010
 -2.034   0.006   0.018   0.003   0.002  -2.493   0.006   0.017
  0.006  -1.991   0.001  -0.014  -0.004   0.006  -2.453   0.001
  0.018   0.001  -2.005   0.001   0.010   0.017   0.001  -2.467
  0.003  -0.014   0.001  -2.007   0.006   0.003  -0.013   0.001
  0.002  -0.004   0.010   0.006  -2.036   0.002  -0.004   0.010
  0.007  -0.001  -0.017  -0.002   0.004   0.007  -0.001  -0.016
 -0.016   0.002   0.047   0.004  -0.009  -0.015   0.002   0.045
  0.001  -0.024  -0.000   0.002  -0.003   0.001  -0.023  -0.000
  0.002   0.001  -0.022   0.001   0.001   0.002   0.001  -0.021
 -0.002   0.002  -0.000  -0.022   0.001  -0.002   0.002  -0.000
  0.003   0.030  -0.001  -0.001  -0.000   0.002   0.029  -0.001
 -0.001   0.002   0.031   0.003  -0.001  -0.001   0.001   0.031
  0.003  -0.001  -0.002   0.029   0.003   0.003  -0.001  -0.002
 total augmentation occupancy for first ion, spin component:           1
  0.365  -0.013   0.054  -0.022   0.023  -0.434   0.024  -0.080   0.045   0.050   0.128   0.003   0.029   0.035  -0.013   0.002
 -0.013   0.536   0.001  -0.066  -0.007   0.023  -0.976  -0.019   0.142   0.013   0.006   0.001   0.013   0.019   0.019  -0.002
  0.054   0.001   0.391   0.002   0.031  -0.075  -0.019  -0.565  -0.033  -0.043  -0.008   0.001  -0.002   0.085  -0.004  -0.000
 -0.022  -0.066   0.002   0.459  -0.013   0.040   0.142  -0.033  -0.811   0.023   0.010   0.001   0.019   0.033   0.035   0.001
  0.023  -0.007   0.031  -0.013   0.338   0.050   0.017  -0.046   0.024  -0.492   0.074   0.002  -0.047   0.020   0.029  -0.002
 -0.434   0.023  -0.075   0.040   0.050   1.214  -0.015   0.141  -0.006  -0.057  -0.242  -0.005  -0.060  -0.012  -0.039  -0.004
  0.024  -0.976  -0.019   0.142   0.017  -0.015   2.144   0.013  -0.245   0.011   0.010  -0.001  -0.086  -0.051  -0.007   0.004
 -0.080  -0.019  -0.565  -0.033  -0.046   0.141   0.013   1.797   0.022   0.081   0.256  -0.008   0.013  -0.098   0.022   0.001
  0.045   0.142  -0.033  -0.811   0.024  -0.006  -0.245   0.022   1.861  -0.015   0.017  -0.001  -0.007  -0.089  -0.095  -0.002
  0.050   0.013  -0.043   0.023  -0.492  -0.057   0.011   0.081  -0.015   1.281  -0.140  -0.003   0.030  -0.007  -0.060   0.005
  0.128   0.006  -0.008   0.010   0.074  -0.242   0.010   0.256   0.017  -0.140   1.894   0.035  -0.034  -0.080  -0.059  -0.002
  0.003   0.001   0.001   0.001   0.002  -0.005  -0.001  -0.008  -0.001  -0.003   0.035   0.001  -0.001   0.001  -0.002  -0.000
  0.029   0.013  -0.002   0.019  -0.047  -0.060  -0.086   0.013  -0.007   0.030  -0.034  -0.001   0.368   0.002  -0.037   0.010
  0.035   0.019   0.085   0.033   0.020  -0.012  -0.051  -0.098  -0.089  -0.007  -0.080   0.001   0.002   0.277   0.003  -0.000
 -0.013   0.019  -0.004   0.035   0.029  -0.039  -0.007   0.022  -0.095  -0.060  -0.059  -0.002  -0.037   0.003   0.325  -0.000
  0.002  -0.002  -0.000   0.001  -0.002  -0.004   0.004   0.001  -0.002   0.005  -0.002  -0.000   0.010  -0.000  -0.000   0.000
  0.001   0.001   0.001   0.002   0.000  -0.002  -0.003   0.002  -0.006  -0.001   0.004   0.000   0.000   0.005   0.000  -0.000
 -0.000   0.001  -0.001  -0.000   0.002  -0.001  -0.002   0.002   0.001  -0.004  -0.004  -0.000  -0.000  -0.000   0.010   0.000


------------------------ aborting loop because EDIFF is reached ----------------------------------------


    CHARGE:  cpu time    0.0168: real time    0.0168
    FORLOC:  cpu time    0.0040: real time    0.0040
    FORNL :  cpu time    0.3132: real time    0.3134
    STRESS:  cpu time    0.3373: real time    0.3375
    FORCOR:  cpu time    0.0210: real time    0.0210
    FORHAR:  cpu time    0.0071: real time    0.0072
    MIXING:  cpu time    0.0010: real time    0.0010
    OFIELD:  cpu time    0.0000: real time    0.0000

  FORCE on cell =-STRESS in cart. coord.  units (eV):
  Direction    XX          YY          ZZ          XY          YZ          ZX
  --------------------------------------------------------------------------------------
  Alpha Z   528.48625   528.48625   528.48625
  Ewald   -1761.24354 -1761.24325 -1581.81606     0.00014     0.00000    -0.00000
  Hartree   226.44392   226.44390   305.11038    -0.00001    -0.00000    -0.00000
  E(xc)    -494.04904  -494.04923  -503.55944    -0.00017    -0.00000    -0.00000
  Local     316.13990   316.13882    54.78102    -0.00090    -0.00001    -0.00001
  n-local  -109.89341  -108.13113  -110.63946    -1.52726     0.00000    -0.00000
  augment   444.61247   444.61375   456.35803     0.00114     0.00001     0.00001
  Kinetic   848.21036   848.64991   851.10322    -0.38088    -0.00000     0.00000
  Fock        0.00000     0.00000     0.00000     0.00000     0.00000     0.00000
  -------------------------------------------------------------------------------------
  Total      -0.19203    -0.19203    -0.17606    -0.00000    -0.00000     0.00000
  in kB      -1.13607    -1.13607    -1.04158    -0.00000    -0.00000     0.00000
  external pressure =       -1.10 kB  Pullay stress =        0.00 kB


 VOLUME and BASIS-vectors are now :
 -----------------------------------------------------------------------------
  energy-cutoff  :      267.88
  volume of cell :      270.82
      direct lattice vectors                 reciprocal lattice vectors
     8.222283579 -0.000000013 -0.000000000     0.121620714  0.070217746  0.000000000
    -4.111141306  7.120706238  0.000000000     0.000000000  0.140435508 -0.000000000
    -0.000000000  0.000000000  4.625582155     0.000000000 -0.000000000  0.216189004

  length of vectors
     8.222283579  8.222283148  4.625582155     0.140435501  0.140435508  0.216189004


 FORCES acting on ions
    electron-ion (+dipol)            ewald-force                    non-local-force                 convergence-correction
 -----------------------------------------------------------------------------------------------
   -.606E+02 -.350E+02 -.808E+01   0.589E+02 0.340E+02 0.820E+01   0.161E+01 0.928E+00 -.127E+00   0.208E-01 0.120E-01 0.545E-02
   0.606E+02 -.350E+02 -.808E+01   -.589E+02 0.340E+02 0.820E+01   -.161E+01 0.928E+00 -.127E+00   -.208E-01 0.120E-01 0.545E-02
   -.112E-03 0.699E+02 -.808E+01   0.187E-03 -.680E+02 0.820E+01   -.104E-05 -.186E+01 -.127E+00   0.330E-05 -.241E-01 0.545E-02
   -.606E+02 -.350E+02 0.808E+01   0.589E+02 0.340E+02 -.820E+01   0.161E+01 0.928E+00 0.127E+00   0.208E-01 0.120E-01 -.545E-02
   0.606E+02 -.350E+02 0.808E+01   -.589E+02 0.340E+02 -.820E+01   -.161E+01 0.928E+00 0.127E+00   -.208E-01 0.120E-01 -.545E-02
   -.417E-04 0.699E+02 0.808E+01   0.116E-03 -.680E+02 -.820E+01   0.791E-06 -.186E+01 0.127E+00   -.340E-05 -.241E-01 -.545E-02
   -.356E+02 0.206E+02 -.251E-07   0.390E+02 -.225E+02 0.681E-07   -.335E+01 0.193E+01 0.508E-17   0.237E-01 -.137E-01 -.697E-11
   -.135E-03 -.412E+02 -.110E-05   0.291E-03 0.450E+02 -.746E-07   -.263E-06 -.387E+01 -.345E-17   -.123E-06 0.274E-01 -.104E-08
   0.356E+02 0.206E+02 0.113E-05   -.390E+02 -.225E+02 0.642E-08   0.335E+01 0.193E+01 -.164E-17   -.237E-01 -.137E-01 0.105E-08
   -.354E+02 0.205E+02 0.128E-07   0.358E+02 -.207E+02 -.347E-07   -.350E+00 0.202E+00 0.531E-18   0.186E-01 -.107E-01 0.347E-11
   -.515E-03 -.409E+02 -.144E-05   0.101E-02 0.413E+02 0.380E-07   -.274E-07 -.404E+00 -.360E-18   -.255E-06 0.214E-01 0.171E-08
   0.354E+02 0.205E+02 0.143E-05   -.358E+02 -.207E+02 -.327E-08   0.350E+00 0.202E+00 -.171E-18   -.186E-01 -.107E-01 -.171E-08
   0.254E-03 -.134E-03 0.865E-12   -.283E-03 0.147E-03 0.165E-11   -.400E-17 0.606E-17 -.300E-22   -.374E-06 0.212E-06 0.198E-12
   -.788E+01 0.455E+01 0.151E-07   0.649E+01 -.375E+01 -.416E-07   0.138E+01 -.795E+00 -.209E-17   0.270E-02 -.156E-02 0.124E-11
   0.182E-03 -.910E+01 0.156E-05   -.394E-03 0.750E+01 0.455E-07   0.108E-06 0.159E+01 0.142E-17   -.223E-06 0.312E-02 -.808E-10
   0.788E+01 0.455E+01 -.158E-05   -.649E+01 -.375E+01 -.392E-08   -.138E+01 -.795E+00 0.673E-18   -.270E-02 -.156E-02 0.789E-10
   -.452E-04 0.256E-04 0.152E-12   0.788E-04 -.492E-04 0.728E-14   0.156E-16 0.222E-19 -.127E-22   -.174E-07 0.126E-07 0.891E-14
   -.800E+01 0.462E+01 -.229E-07   0.447E+01 -.258E+01 0.627E-07   0.354E+01 -.204E+01 -.537E-17   -.685E-02 0.396E-02 -.234E-11
   -.159E-03 -.924E+01 -.337E-06   -.736E-03 0.516E+01 -.688E-07   0.278E-06 0.409E+01 0.364E-17   -.293E-05 -.792E-02 -.331E-08
   0.800E+01 0.462E+01 0.360E-06   -.447E+01 -.258E+01 0.606E-08   -.354E+01 -.204E+01 0.173E-17   0.686E-02 0.396E-02 0.331E-08
 -----------------------------------------------------------------------------------------------
   -.964E-03 0.560E-03 0.155E-10   -.204E-13 -.182E-13 0.266E-14   -.444E-15 0.444E-15 0.193E-22   0.415E-06 -.243E-06 0.124E-13
 
 
 POSITION                                       TOTAL-FORCE (eV/Angst)
 -----------------------------------------------------------------------------------
     -1.58621      3.83134      1.13257        -0.000102     -0.000056     -0.008083
      1.58621      3.83134      1.13257         0.000099     -0.000060     -0.008083
      4.11114     -0.54198      1.13257         0.000003      0.000116     -0.008083
     -1.58621      3.83134      3.49301        -0.000099     -0.000060      0.008083
      1.58621      3.83134      3.49301         0.000102     -0.000056      0.008083
      4.11114     -0.54198      3.49301        -0.000003      0.000116      0.008083
     -2.21447      6.02566      0.00000         0.005426     -0.003133     -0.000000
      0.00000      2.19009      0.00000         0.000000      0.006265     -0.000000
      2.21447      6.02566      0.00000        -0.005426     -0.003133     -0.000000
     -2.65947      6.28258      2.31279        -0.007683      0.004436     -0.000000
      0.00000      1.67625      2.31279        -0.000000     -0.008872     -0.000000
      2.65947      6.28258      2.31279         0.007683      0.004436     -0.000000
      4.11115      2.37357      2.31279         0.000000     -0.000000     -0.000000
      5.40534      1.62637     -0.00000        -0.006418      0.003706     -0.000000
      4.11114      3.86798      0.00000        -0.000000     -0.007411     -0.000000
      2.81695      1.62637      0.00000         0.006418      0.003706     -0.000000
     -0.00000      0.00000      0.00000         0.000000     -0.000000     -0.000000
      6.05367      1.25205      2.31279         0.000260     -0.000150     -0.000000
      4.11115      4.61660      2.31279         0.000000      0.000300     -0.000000
      2.16862      1.25205      2.31279        -0.000260     -0.000150     -0.000000
 -----------------------------------------------------------------------------------
    total drift:                               -0.000964      0.000560      0.000000


--------------------------------------------------------------------------------------------------------



  FREE ENERGIE OF THE ION-ELECTRON SYSTEM (eV)
  ---------------------------------------------------
  free  energy   TOTEN  =      -169.62876027 eV

  energy  without entropy=     -169.52110623  energy(sigma->0) =     -169.57493325
 
 d Force = 0.6052856E-04[-0.522E-05, 0.126E-03]  d Energy = 0.2736240E-04 0.332E-04
 d Force = 0.6768935E+00[ 0.675E+00, 0.679E+00]  d Ewald  =-0.1088692E+01 0.177E+01


--------------------------------------------------------------------------------------------------------


    POTLOK:  cpu time    0.0260: real time    0.0261


--------------------------------------------------------------------------------------------------------


 Conjugate gradient step on ions:
 trial-energy change:   -0.000027  1 .order   -0.000034   -0.000268    0.000200
  (g-gl).g = 0.207E-03      g.g   = 0.185E-03  gl.gl    = 0.570E-03
 g(Force)  = 0.814E-04   g(Stress)= 0.104E-03 ortho     =-0.174E-04
 gamma     =   0.36299
 trial     =   1.49454
 opt step  =   0.85564  (harmonic =   0.85564) maximal distance =0.00071155
 next E    =  -169.628810   (d E  =  -0.00008)


--------------------------------------------------------------------------------------------------------


  
 reached required accuracy - stopping structural energy minimisation
     LOOP+:  cpu time    4.9139: real time    4.9245
    4ORBIT:  cpu time    0.0000: real time    0.0000

 total amount of memory used by VASP MPI-rank0    42733. kBytes
=======================================================================

   base      :      30000. kBytes
   nonl-proj :       3797. kBytes
   fftplans  :       1757. kBytes
   grid      :       3670. kBytes
   one-center:        311. kBytes
   wavefun   :       3198. kBytes
 
  
  
 General timing and accounting informations for this job:
 ========================================================
  
                  Total CPU time used (sec):      948.294
                            User time (sec):      940.200
                          System time (sec):        8.094
                         Elapsed time (sec):      950.257
  
                   Maximum memory used (kb):      200000.
                   Average memory used (kb):           0.
  
                          Minor page faults:      1015802
                          Major page faults:            0
                 Voluntary context switches:          436
