<?xml version="1.0" encoding="ISO-8859-1"?>
<modeling>
 <generator>
  <i name="program" type="string">vasp </i>
  <i name="version" type="string">5.4.4.18Apr17-6-g9f103f2a35  </i>
  <i name="subversion" type="string">(build Jul 11 2019 11:52:51) complex            parallel </i>
  <i name="platform" type="string">LinuxIFC </i>
  <i name="date" type="string">2023 11 29 </i>
  <i name="time" type="string">16:56:30 </i>
 </generator>
 <incar>
  <i type="int" name="ISTART">     0</i>
  <i type="string" name="PREC">normal</i>
  <i type="int" name="IBRION">     2</i>
  <i name="EDIFF">      0.00001000</i>
  <i name="EDIFFG">     -0.01000000</i>
  <i type="int" name="NSW">   500</i>
  <i type="int" name="ISIF">     3</i>
  <i name="POTIM">      0.50000000</i>
  <i type="int" name="ISMEAR">     0</i>
  <i name="SIGMA">      0.10000000</i>
  <i name="PSTRESS">      0.00000000</i>
  <i type="logical" name="LWAVE"> F  </i>
  <i type="logical" name="LCHARG"> F  </i>
  <v type="int" name="KPOINT_BSE">    -1     0     0     0</v>
 </incar>
 <structure name="primitive_cell" >
  <crystal>
   <varray name="basis" >
    <v>       8.29565300       0.00000000       0.00000000 </v>
    <v>      -4.14782600       7.18424600       0.00000000 </v>
    <v>       0.00000000       0.00000000       4.34699100 </v>
   </varray>
   <i name="volume">    259.07202127 </i>
   <varray name="rec_basis" >
    <v>       0.12054506       0.06959672       0.00000000 </v>
    <v>       0.00000000       0.13919345       0.00000000 </v>
    <v>       0.00000000       0.00000000       0.23004418 </v>
   </varray>
  </crystal>
  <varray name="positions" >
   <v>      -0.01422500       0.43717800       0.21881900 </v>
   <v>      -0.01422500      -0.45140300      -0.21881900 </v>
   <v>      -0.17069000       0.17069000       0.00000000 </v>
   <v>       0.17890100       0.35780200       0.00000000 </v>
   <v>      -0.17929600       0.17929600      -0.50000000 </v>
   <v>      -0.33333300       0.33333300      -0.50000000 </v>
   <v>       0.10465200       0.20930400      -0.50000000 </v>
   <v>      -0.17069000      -0.34138000       0.00000000 </v>
   <v>       0.17890100      -0.17890100       0.00000000 </v>
   <v>      -0.17929600      -0.35859300      -0.50000000 </v>
   <v>       0.10465200      -0.10465200      -0.50000000 </v>
   <v>       0.00000000       0.00000000       0.00000000 </v>
   <v>      -0.43717800       0.01422500      -0.21881900 </v>
   <v>      -0.43717800      -0.45140300       0.21881900 </v>
   <v>       0.45140300       0.01422500       0.21881900 </v>
   <v>      -0.20930400      -0.10465200      -0.50000000 </v>
   <v>       0.45140300       0.43717800      -0.21881900 </v>
   <v>      -0.35780200      -0.17890100       0.00000000 </v>
   <v>       0.34138000       0.17069000       0.00000000 </v>
   <v>       0.35859300       0.17929600      -0.50000000 </v>
  </varray>
 </structure>
 <varray name="primitive_index" >
  <v type="int" >        1 </v>
  <v type="int" >        4 </v>
  <v type="int" >       14 </v>
  <v type="int" >        8 </v>
  <v type="int" >       18 </v>
  <v type="int" >       13 </v>
  <v type="int" >       11 </v>
  <v type="int" >       15 </v>
  <v type="int" >        7 </v>
  <v type="int" >       19 </v>
  <v type="int" >       10 </v>
  <v type="int" >       17 </v>
  <v type="int" >        6 </v>
  <v type="int" >        2 </v>
  <v type="int" >        3 </v>
  <v type="int" >       12 </v>
  <v type="int" >        5 </v>
  <v type="int" >        9 </v>
  <v type="int" >       16 </v>
  <v type="int" >       20 </v>
 </varray>
 <kpoints>
  <generation param="Gamma">
   <v type="int" name="divisions">       2        2        3 </v>
   <v name="usershift">      0.00000000       0.00000000       0.00000000 </v>
   <v name="genvec1">      0.50000000      -0.00000000       0.00000000 </v>
   <v name="genvec2">      0.00000000       0.50000000       0.00000000 </v>
   <v name="genvec3">      0.00000000       0.00000000       0.33333333 </v>
   <v name="shift">      0.00000000       0.00000000       0.00000000 </v>
  </generation>
  <varray name="kpointlist" >
   <v>       0.00000000       0.00000000       0.00000000 </v>
   <v>       0.50000000      -0.00000000       0.00000000 </v>
   <v>       0.00000000       0.00000000       0.33333333 </v>
   <v>       0.50000000      -0.00000000       0.33333333 </v>
  </varray>
  <varray name="weights" >
   <v>       0.08333333 </v>
   <v>       0.25000000 </v>
   <v>       0.16666667 </v>
   <v>       0.50000000 </v>
  </varray>
 </kpoints>
 <parameters>
  <separator name="general" >
   <i type="string" name="SYSTEM">unknown system</i>
   <i type="logical" name="LCOMPAT"> F  </i>
  </separator>
  <separator name="electronic" >
   <i type="string" name="PREC">normal</i>
   <i name="ENMAX">    267.88200000</i>
   <i name="ENAUG">    511.36800000</i>
   <i name="EDIFF">      0.00001000</i>
   <i type="int" name="IALGO">    38</i>
   <i type="int" name="IWAVPR">    11</i>
   <i type="int" name="NBANDS">    68</i>
   <i name="NELECT">    109.00000000</i>
   <i type="int" name="TURBO">     0</i>
   <i type="int" name="IRESTART">     0</i>
   <i type="int" name="NREBOOT">     0</i>
   <i type="int" name="NMIN">     0</i>
   <i name="EREF">      0.00000000</i>
   <separator name="electronic smearing" >
    <i type="int" name="ISMEAR">     0</i>
    <i name="SIGMA">      0.10000000</i>
    <i name="KSPACING">      0.50000000</i>
    <i type="logical" name="KGAMMA"> T  </i>
   </separator>
   <separator name="electronic projectors" >
    <i type="logical" name="LREAL"> F  </i>
    <v name="ROPT">      0.00000000      0.00000000</v>
    <i type="int" name="LMAXPAW">  -100</i>
    <i type="int" name="LMAXMIX">     2</i>
    <i type="logical" name="NLSPLINE"> F  </i>
   </separator>
   <separator name="electronic startup" >
    <i type="int" name="ISTART">     0</i>
    <i type="int" name="ICHARG">     2</i>
    <i type="int" name="INIWAV">     1</i>
   </separator>
   <separator name="electronic spin" >
    <i type="int" name="ISPIN">     1</i>
    <i type="logical" name="LNONCOLLINEAR"> F  </i>
    <v name="MAGMOM">      1.00000000      1.00000000      1.00000000      1.00000000      1.00000000      1.00000000      1.00000000      1.00000000      1.00000000      1.00000000      1.00000000      1.00000000      1.00000000      1.00000000      1.00000000      1.00000000      1.00000000      1.00000000      1.00000000      1.00000000
</v>
    <i name="NUPDOWN">     -1.00000000</i>
    <i type="logical" name="LSORBIT"> F  </i>
    <v name="SAXIS">      0.00000000      0.00000000      1.00000000</v>
    <i type="logical" name="LSPIRAL"> F  </i>
    <v name="QSPIRAL">      0.00000000      0.00000000      0.00000000</v>
    <i type="logical" name="LZEROZ"> F  </i>
   </separator>
   <separator name="electronic exchange-correlation" >
    <i type="logical" name="LASPH"> F  </i>
    <i type="logical" name="LMETAGGA"> F  </i>
   </separator>
   <separator name="electronic convergence" >
    <i type="int" name="NELM">    60</i>
    <i type="int" name="NELMDL">    -5</i>
    <i type="int" name="NELMIN">     2</i>
    <i name="ENINI">    267.88200000</i>
    <separator name="electronic convergence detail" >
     <i type="logical" name="LDIAG"> T  </i>
     <i type="logical" name="LSUBROT"> F  </i>
     <i name="WEIMIN">      0.00100000</i>
     <i name="EBREAK">      0.00000004</i>
     <i name="DEPER">      0.30000000</i>
     <i type="int" name="NRMM">     4</i>
     <i name="TIME">      0.40000000</i>
    </separator>
   </separator>
   <separator name="electronic mixer" >
    <i name="AMIX">      0.40000000</i>
    <i name="BMIX">      1.00000000</i>
    <i name="AMIN">      0.10000000</i>
    <i name="AMIX_MAG">      1.60000000</i>
    <i name="BMIX_MAG">      1.00000000</i>
    <separator name="electronic mixer details" >
     <i type="int" name="IMIX">     4</i>
     <i type="logical" name="MIXFIRST"> F  </i>
     <i type="int" name="MAXMIX">   -45</i>
     <i name="WC">    100.00000000</i>
     <i type="int" name="INIMIX">     1</i>
     <i type="int" name="MIXPRE">     1</i>
     <i type="int" name="MREMOVE">     5</i>
    </separator>
   </separator>
   <separator name="electronic dipolcorrection" >
    <i type="logical" name="LDIPOL"> F  </i>
    <i type="logical" name="LMONO"> F  </i>
    <i type="int" name="IDIPOL">     0</i>
    <i name="EPSILON">      1.00000000</i>
    <v name="DIPOL">   -100.00000000   -100.00000000   -100.00000000</v>
    <i name="EFIELD">      0.00000000</i>
   </separator>
  </separator>
  <separator name="grids" >
   <i type="int" name="NGX">    36</i>
   <i type="int" name="NGY">    36</i>
   <i type="int" name="NGZ">    18</i>
   <i type="int" name="NGXF">    72</i>
   <i type="int" name="NGYF">    72</i>
   <i type="int" name="NGZF">    36</i>
   <i type="logical" name="ADDGRID"> F  </i>
  </separator>
  <separator name="ionic" >
   <i type="int" name="NSW">   500</i>
   <i type="int" name="IBRION">     2</i>
   <i type="int" name="MDALGO">     0</i>
   <i type="int" name="ISIF">     3</i>
   <i name="PSTRESS">      0.00000000</i>
   <i name="EDIFFG">     -0.01000000</i>
   <i type="int" name="NFREE">     1</i>
   <i name="POTIM">      0.50000000</i>
   <i name="SMASS">     -3.00000000</i>
   <i name="SCALEE">      1.00000000</i>
  </separator>
  <separator name="ionic md" >
   <i name="TEBEG">      0.00010000</i>
   <i name="TEEND">      0.00010000</i>
   <i type="int" name="NBLOCK">     1</i>
   <i type="int" name="KBLOCK">   500</i>
   <i type="int" name="NPACO">   256</i>
   <i name="APACO">     16.00000000</i>
  </separator>
  <separator name="symmetry" >
   <i type="int" name="ISYM">     2</i>
   <i name="SYMPREC">      0.00001000</i>
  </separator>
  <separator name="dos" >
   <i type="int" name="LORBIT">     0</i>
   <v name="RWIGS">     -1.00000000     -1.00000000</v>
   <i type="int" name="NEDOS">   301</i>
   <i name="EMIN">     10.00000000</i>
   <i name="EMAX">    -10.00000000</i>
   <i name="EFERMI">      0.00000000</i>
  </separator>
  <separator name="writing" >
   <i type="int" name="NWRITE">     2</i>
   <i type="logical" name="LWAVE"> F  </i>
   <i type="logical" name="LDOWNSAMPLE"> F  </i>
   <i type="logical" name="LCHARG"> F  </i>
   <i type="logical" name="LPARD"> F  </i>
   <i type="logical" name="LVTOT"> F  </i>
   <i type="logical" name="LVHAR"> F  </i>
   <i type="logical" name="LELF"> F  </i>
   <i type="logical" name="LOPTICS"> F  </i>
   <v name="STM">      0.00000000      0.00000000      0.00000000      0.00000000      0.00000000      0.00000000      0.00000000</v>
  </separator>
  <separator name="performance" >
   <i type="int" name="NPAR">     4</i>
   <i type="int" name="NSIM">     4</i>
   <i type="int" name="NBLK">    -1</i>
   <i type="logical" name="LPLANE"> T  </i>
   <i type="logical" name="LSCALAPACK"> T  </i>
   <i type="logical" name="LSCAAWARE"> F  </i>
   <i type="logical" name="LSCALU"> F  </i>
   <i type="logical" name="LASYNC"> F  </i>
   <i type="logical" name="LORBITALREAL"> F  </i>
  </separator>
  <separator name="miscellaneous" >
   <i type="int" name="IDIOT">     3</i>
   <i type="int" name="ISPECIAL">     0</i>
   <i type="logical" name="LMUSIC"> F  </i>
   <v name="POMASS">     50.94100000     55.84700000</v>
   <v name="DARWINR">      0.00000000      0.00000000</v>
   <v name="DARWINV">      1.00000000      1.00000000</v>
   <i type="logical" name="LCORR"> T  </i>
  </separator>
  <i type="logical" name="GGA_COMPAT"> T  </i>
  <i type="logical" name="LBERRY"> F  </i>
  <i type="int" name="ICORELEVEL">     0</i>
  <i type="logical" name="LDAU"> F  </i>
  <i type="int" name="I_CONSTRAINED_M">     0</i>
  <separator name="electronic exchange-correlation" >
   <i type="string" name="GGA">--</i>
   <i type="int" name="VOSKOWN">     0</i>
   <i type="logical" name="LHFCALC"> F  </i>
   <i type="string" name="PRECFOCK"></i>
   <i type="logical" name="LSYMGRAD"> F  </i>
   <i type="logical" name="LHFONE"> F  </i>
   <i type="logical" name="LRHFCALC"> F  </i>
   <i type="logical" name="LTHOMAS"> F  </i>
   <i type="logical" name="LMODELHF"> F  </i>
   <i name="ENCUT4O">     -1.00000000</i>
   <i type="int" name="EXXOEP">     0</i>
   <i type="int" name="FOURORBIT">     0</i>
   <i name="AEXX">      0.00000000</i>
   <i name="HFALPHA">      0.00000000</i>
   <i name="MCALPHA">      0.00000000</i>
   <i name="ALDAX">      1.00000000</i>
   <i name="AGGAX">      1.00000000</i>
   <i name="ALDAC">      1.00000000</i>
   <i name="AGGAC">      1.00000000</i>
   <i type="int" name="NKREDX">     1</i>
   <i type="int" name="NKREDY">     1</i>
   <i type="int" name="NKREDZ">     1</i>
   <i type="logical" name="SHIFTRED"> F  </i>
   <i type="logical" name="ODDONLY"> F  </i>
   <i type="logical" name="EVENONLY"> F  </i>
   <i type="int" name="LMAXFOCK">     0</i>
   <i type="int" name="NMAXFOCKAE">     0</i>
   <i type="logical" name="LFOCKAEDFT"> F  </i>
   <i name="HFSCREEN">      0.00000000</i>
   <i name="HFSCREENC">      0.00000000</i>
   <i type="int" name="NBANDSGWLOW">     0</i>
  </separator>
  <separator name="vdW DFT" >
   <i type="logical" name="LUSE_VDW"> F  </i>
   <i name="Zab_VDW">     -0.84910000</i>
   <i name="PARAM1">      0.12340000</i>
   <i name="PARAM2">      1.00000000</i>
   <i name="PARAM3">      0.00000000</i>
  </separator>
  <separator name="model GW" >
   <i type="int" name="MODEL_GW">     0</i>
   <i name="MODEL_EPS0">      7.77216064</i>
   <i name="MODEL_ALPHA">      1.00000000</i>
  </separator>
  <separator name="linear response parameters" >
   <i type="logical" name="LEPSILON"> F  </i>
   <i type="logical" name="LRPA"> F  </i>
   <i type="logical" name="LNABLA"> F  </i>
   <i type="logical" name="LVEL"> F  </i>
   <i type="int" name="KINTER">     0</i>
   <i name="CSHIFT">      0.10000000</i>
   <i name="OMEGAMAX">     -1.00000000</i>
   <i name="DEG_THRESHOLD">      0.00200000</i>
   <i name="RTIME">     -0.10000000</i>
   <i name="WPLASMAI">      0.00000000</i>
   <v name="DFIELD">      0.00000000      0.00000000      0.00000000</v>
   <v name="WPLASMA">      0.00000000      0.00000000      0.00000000      0.00000000      0.00000000      0.00000000      0.00000000      0.00000000      0.00000000</v>
  </separator>
  <separator name="orbital magnetization" >
   <i type="logical" name="NUCIND"> F  </i>
   <v name="MAGPOS">      0.00000000      0.00000000      0.00000000</v>
   <i type="logical" name="LNICSALL"> T  </i>
   <i type="logical" name="ORBITALMAG"> F  </i>
   <i type="logical" name="LMAGBLOCH"> F  </i>
   <i type="logical" name="LCHIMAG"> F  </i>
   <i type="logical" name="LGAUGE"> T  </i>
   <i type="int" name="MAGATOM">     0</i>
   <v name="MAGDIPOL">      0.00000000      0.00000000      0.00000000</v>
   <v name="AVECCONST">      0.00000000      0.00000000      0.00000000</v>
  </separator>
  <separator name="response functions" >
   <i type="logical" name="LADDER"> F  </i>
   <i type="logical" name="LRPAFORCE"> F  </i>
   <i type="logical" name="LFXC"> F  </i>
   <i type="logical" name="LHARTREE"> T  </i>
   <i type="int" name="IBSE">     0</i>
   <v type="int" name="KPOINT">    -1     0     0     0</v>
   <i type="logical" name="LTCTE"> F  </i>
   <i type="logical" name="LTETE"> F  </i>
   <i type="logical" name="LTRIPLET"> F  </i>
   <i type="logical" name="LFXCEPS"> F  </i>
   <i type="logical" name="LFXHEG"> F  </i>
   <i type="int" name="NATURALO">     2</i>
   <i type="logical" name="L2ORDER"> F  </i>
   <i type="logical" name="LMP2LT"> F  </i>
   <i type="logical" name="LUSEW"> F  </i>
   <i name="ENCUTGW">     -2.00000000</i>
   <i name="ENCUTGWSOFT">     -2.00000000</i>
   <i name="ENCUTLF">     -1.00000000</i>
   <i type="int" name="LMAXMP2">    -1</i>
   <i name="SCISSOR">      0.00000000</i>
   <i type="int" name="NOMEGA">     0</i>
   <i type="int" name="NOMEGAR">     0</i>
   <i type="int" name="NBANDSGW">    -1</i>
   <i type="int" name="NBANDSO">    -1</i>
   <i type="int" name="NBANDSV">    -1</i>
   <i type="int" name="NELM">     1</i>
   <i type="int" name="NELMHF">     1</i>
   <i type="int" name="DIM">     3</i>
   <i type="int" name="ANTIRES">     0</i>
   <i name="OMEGAMAX">    -30.00000000</i>
   <i name="OMEGAMIN">    -30.00000000</i>
   <i name="OMEGATL">   -200.00000000</i>
   <i type="int" name="OMEGAGRID">   140</i>
   <i name="CSHIFT">     -0.10000000</i>
   <i type="logical" name="SELFENERGY"> F  </i>
   <i type="logical" name="LSPECTRAL"> F  </i>
   <i type="logical" name="LSPECTRALGW"> F  </i>
   <i type="logical" name="LSINGLES"> F  </i>
   <i type="logical" name="LFERMIGW"> F  </i>
   <i type="logical" name="ODDONLYGW"> F  </i>
   <i type="logical" name="EVENONLYGW"> F  </i>
   <i type="int" name="NKREDLFX">     1</i>
   <i type="int" name="NKREDLFY">     1</i>
   <i type="int" name="NKREDLFZ">     1</i>
   <i type="int" name="MAXMEM">  2800</i>
   <i type="int" name="TELESCOPE">     0</i>
   <i type="int" name="TAUPAR">     1</i>
   <i type="int" name="OMEGAPAR">    -1</i>
   <i name="LAMBDA">      1.00000000</i>
  </separator>
  <separator name="External order field" >
   <i name="OFIELD_KAPPA">      0.00000000</i>
   <v name="OFIELD_K">      0.00000000      0.00000000      0.00000000</v>
   <i name="OFIELD_Q6_NEAR">      0.00000000</i>
   <i name="OFIELD_Q6_FAR">      0.00000000</i>
   <i name="OFIELD_A">      0.00000000</i>
  </separator>
 </parameters>
 <atominfo>
  <atoms>      20 </atoms>
  <types>       2 </types>
  <array name="atoms" >
   <dimension dim="1">ion</dimension>
   <field type="string">element</field>
   <field type="int">atomtype</field>
   <set>
    <rc><c>V </c><c>   1</c></rc>
    <rc><c>V </c><c>   1</c></rc>
    <rc><c>V </c><c>   1</c></rc>
    <rc><c>V </c><c>   1</c></rc>
    <rc><c>V </c><c>   1</c></rc>
    <rc><c>V </c><c>   1</c></rc>
    <rc><c>V </c><c>   1</c></rc>
    <rc><c>V </c><c>   1</c></rc>
    <rc><c>V </c><c>   1</c></rc>
    <rc><c>V </c><c>   1</c></rc>
    <rc><c>V </c><c>   1</c></rc>
    <rc><c>V </c><c>   1</c></rc>
    <rc><c>V </c><c>   1</c></rc>
    <rc><c>V </c><c>   1</c></rc>
    <rc><c>V </c><c>   1</c></rc>
    <rc><c>V </c><c>   1</c></rc>
    <rc><c>V </c><c>   1</c></rc>
    <rc><c>Fe</c><c>   2</c></rc>
    <rc><c>Fe</c><c>   2</c></rc>
    <rc><c>Fe</c><c>   2</c></rc>
   </set>
  </array>
  <array name="atomtypes" >
   <dimension dim="1">type</dimension>
   <field type="int">atomspertype</field>
   <field type="string">element</field>
   <field>mass</field>
   <field>valence</field>
   <field type="string">pseudopotential</field>
   <set>
    <rc><c>  17</c><c>V </c><c>     50.94100000</c><c>      5.00000000</c><c>  PAW_PBE V 08Apr2002                   </c></rc>
    <rc><c>   3</c><c>Fe</c><c>     55.84700000</c><c>      8.00000000</c><c>  PAW_PBE Fe 06Sep2000                  </c></rc>
   </set>
  </array>
 </atominfo>
 <structure name="initialpos" >
  <crystal>
   <varray name="basis" >
    <v>       8.29565300       0.00000000       0.00000000 </v>
    <v>      -4.14782600       7.18424600       0.00000000 </v>
    <v>       0.00000000       0.00000000       4.34699100 </v>
   </varray>
   <i name="volume">    259.07202127 </i>
   <varray name="rec_basis" >
    <v>       0.12054506       0.06959672       0.00000000 </v>
    <v>       0.00000000       0.13919345       0.00000000 </v>
    <v>       0.00000000       0.00000000       0.23004418 </v>
   </varray>
  </crystal>
  <varray name="positions" >
   <v>       0.98577500       0.43717800       0.21881900 </v>
   <v>       0.56282200       0.54859700       0.21881900 </v>
   <v>       0.45140300       0.01422500       0.21881900 </v>
   <v>       0.98577500       0.54859700       0.78118100 </v>
   <v>       0.45140300       0.43717800       0.78118100 </v>
   <v>       0.56282200       0.01422500       0.78118100 </v>
   <v>       0.17890100       0.82109900       0.00000000 </v>
   <v>       0.17890100       0.35780200       0.00000000 </v>
   <v>       0.64219800       0.82109900       0.00000000 </v>
   <v>       0.10465200       0.89534800       0.50000000 </v>
   <v>       0.10465200       0.20930400       0.50000000 </v>
   <v>       0.79069600       0.89534800       0.50000000 </v>
   <v>       0.66666700       0.33333300       0.50000000 </v>
   <v>       0.82931000       0.17069000       0.00000000 </v>
   <v>       0.82931000       0.65862000       0.00000000 </v>
   <v>       0.34138000       0.17069000       0.00000000 </v>
   <v>       0.00000000       0.00000000       0.00000000 </v>
   <v>       0.82070400       0.17929600       0.50000000 </v>
   <v>       0.82070400       0.64140700       0.50000000 </v>
   <v>       0.35859300       0.17929600       0.50000000 </v>
  </varray>
 </structure>
 <calculation>
  <scstep>
   <time name="dav">    0.71    0.71</time>
   <time name="total">    0.77    0.77</time>
   <energy>
    <i name="alphaZ">    552.45270090 </i>
    <i name="ewald">  -4686.97330186 </i>
    <i name="hartreedc">  -1289.44686073 </i>
    <i name="XCdc">   -768.31940792 </i>
    <i name="pawpsdc">   5171.05454107 </i>
    <i name="pawaedc">  -4356.08836938 </i>
    <i name="eentropy">     -0.06777354 </i>
    <i name="bandstr">   1401.86298730 </i>
    <i name="atom">   4687.48422623 </i>
    <i name="e_fr_energy">    711.95874206 </i>
    <i name="e_wo_entrp">    712.02651560 </i>
    <i name="e_0_energy">    711.99262883 </i>
   </energy>
  </scstep>
  <scstep>
   <time name="dav">    0.71    0.71</time>
   <time name="total">    0.71    0.71</time>
   <energy>
    <i name="e_fr_energy">    -25.21594929 </i>
    <i name="e_wo_entrp">    -25.14693951 </i>
    <i name="e_0_energy">    -25.18144440 </i>
   </energy>
  </scstep>
  <scstep>
   <time name="dav">    1.09    1.09</time>
   <time name="total">    1.09    1.10</time>
   <energy>
    <i name="e_fr_energy">   -160.45854851 </i>
    <i name="e_wo_entrp">   -160.38362305 </i>
    <i name="e_0_energy">   -160.42108578 </i>
   </energy>
  </scstep>
  <scstep>
   <time name="dav">    1.05    1.05</time>
   <time name="total">    1.05    1.05</time>
   <energy>
    <i name="e_fr_energy">   -175.42511713 </i>
    <i name="e_wo_entrp">   -175.32482973 </i>
    <i name="e_0_energy">   -175.37497343 </i>
   </energy>
  </scstep>
  <scstep>
   <time name="dav">    0.99    0.99</time>
   <time name="total">    1.02    1.02</time>
   <energy>
    <i name="e_fr_energy">   -176.29118738 </i>
    <i name="e_wo_entrp">   -176.18457374 </i>
    <i name="e_0_energy">   -176.23788056 </i>
   </energy>
  </scstep>
  <scstep>
   <time name="dav">    0.98    0.98</time>
   <time name="total">    1.07    1.07</time>
   <energy>
    <i name="e_fr_energy">   -174.48595076 </i>
    <i name="e_wo_entrp">   -174.35892089 </i>
    <i name="e_0_energy">   -174.42243583 </i>
   </energy>
  </scstep>
  <scstep>
   <time name="dav">    1.16    1.16</time>
   <time name="total">    1.25    1.25</time>
   <energy>
    <i name="e_fr_energy">   -174.92209649 </i>
    <i name="e_wo_entrp">   -174.82538837 </i>
    <i name="e_0_energy">   -174.87374243 </i>
   </energy>
  </scstep>
  <scstep>
   <time name="dav">    1.15    1.15</time>
   <time name="total">    1.25    1.25</time>
   <energy>
    <i name="e_fr_energy">   -167.37985984 </i>
    <i name="e_wo_entrp">   -167.25101832 </i>
    <i name="e_0_energy">   -167.31543908 </i>
   </energy>
  </scstep>
  <scstep>
   <time name="dav">    1.22    1.22</time>
   <time name="total">    1.30    1.31</time>
   <energy>
    <i name="e_fr_energy">   -159.76295827 </i>
    <i name="e_wo_entrp">   -159.63337367 </i>
    <i name="e_0_energy">   -159.69816597 </i>
   </energy>
  </scstep>
  <scstep>
   <time name="dav">    1.01    1.01</time>
   <time name="total">    1.10    1.10</time>
   <energy>
    <i name="e_fr_energy">   -159.06256977 </i>
    <i name="e_wo_entrp">   -158.95105389 </i>
    <i name="e_0_energy">   -159.00681183 </i>
   </energy>
  </scstep>
  <scstep>
   <time name="dav">    1.03    1.03</time>
   <time name="total">    1.12    1.12</time>
   <energy>
    <i name="e_fr_energy">   -158.48775071 </i>
    <i name="e_wo_entrp">   -158.36492514 </i>
    <i name="e_0_energy">   -158.42633792 </i>
   </energy>
  </scstep>
  <scstep>
   <time name="dav">    1.21    1.21</time>
   <time name="total">    1.29    1.30</time>
   <energy>
    <i name="e_fr_energy">   -158.52169298 </i>
    <i name="e_wo_entrp">   -158.41974314 </i>
    <i name="e_0_energy">   -158.47071806 </i>
   </energy>
  </scstep>
  <scstep>
   <time name="dav">    1.23    1.23</time>
   <time name="total">    1.32    1.32</time>
   <energy>
    <i name="e_fr_energy">   -158.48097728 </i>
    <i name="e_wo_entrp">   -158.35582803 </i>
    <i name="e_0_energy">   -158.41840266 </i>
   </energy>
  </scstep>
  <scstep>
   <time name="dav">    0.99    0.99</time>
   <time name="total">    1.08    1.08</time>
   <energy>
    <i name="e_fr_energy">   -158.30356699 </i>
    <i name="e_wo_entrp">   -158.18554252 </i>
    <i name="e_0_energy">   -158.24455476 </i>
   </energy>
  </scstep>
  <scstep>
   <time name="dav">    1.03    1.03</time>
   <time name="total">    1.11    1.12</time>
   <energy>
    <i name="e_fr_energy">   -158.29344583 </i>
    <i name="e_wo_entrp">   -158.17820132 </i>
    <i name="e_0_energy">   -158.23582358 </i>
   </energy>
  </scstep>
  <scstep>
   <time name="dav">    0.95    0.95</time>
   <time name="total">    1.04    1.04</time>
   <energy>
    <i name="e_fr_energy">   -158.28845185 </i>
    <i name="e_wo_entrp">   -158.17270940 </i>
    <i name="e_0_energy">   -158.23058062 </i>
   </energy>
  </scstep>
  <scstep>
   <time name="dav">    0.96    0.96</time>
   <time name="total">    1.05    1.05</time>
   <energy>
    <i name="e_fr_energy">   -158.28401746 </i>
    <i name="e_wo_entrp">   -158.16786919 </i>
    <i name="e_0_energy">   -158.22594333 </i>
   </energy>
  </scstep>
  <scstep>
   <time name="dav">    0.95    0.95</time>
   <time name="total">    1.04    1.05</time>
   <energy>
    <i name="e_fr_energy">   -158.28341535 </i>
    <i name="e_wo_entrp">   -158.16748026 </i>
    <i name="e_0_energy">   -158.22544780 </i>
   </energy>
  </scstep>
  <scstep>
   <time name="dav">    0.97    0.97</time>
   <time name="total">    1.06    1.06</time>
   <energy>
    <i name="e_fr_energy">   -158.28338988 </i>
    <i name="e_wo_entrp">   -158.16751253 </i>
    <i name="e_0_energy">   -158.22545120 </i>
   </energy>
  </scstep>
  <scstep>
   <time name="dav">    0.76    0.76</time>
   <time name="total">    0.81    0.81</time>
   <energy>
    <i name="alphaZ">    552.45270090 </i>
    <i name="ewald">  -4686.97330186 </i>
    <i name="hartreedc">  -1196.16185584 </i>
    <i name="XCdc">   -765.88632782 </i>
    <i name="pawpsdc">   9162.30281705 </i>
    <i name="pawaedc">  -8368.89653989 </i>
    <i name="eentropy">     -0.11590364 </i>
    <i name="bandstr">    457.51079406 </i>
    <i name="atom">   4687.48422623 </i>
    <i name="e_fr_energy">   -158.28339081 </i>
    <i name="e_wo_entrp">   -158.16748717 </i>
    <i name="e_0_energy">   -158.22543899 </i>
   </energy>
  </scstep>
  <structure>
   <crystal>
    <varray name="basis" >
     <v>       8.29565300       0.00000000       0.00000000 </v>
     <v>      -4.14782600       7.18424600       0.00000000 </v>
     <v>       0.00000000       0.00000000       4.34699100 </v>
    </varray>
    <i name="volume">    259.07202127 </i>
    <varray name="rec_basis" >
     <v>       0.12054506       0.06959672       0.00000000 </v>
     <v>       0.00000000       0.13919345       0.00000000 </v>
     <v>       0.00000000       0.00000000       0.23004418 </v>
    </varray>
   </crystal>
   <varray name="positions" >
    <v>       0.98577500       0.43717800       0.21881900 </v>
    <v>       0.56282200       0.54859700       0.21881900 </v>
    <v>       0.45140300       0.01422500       0.21881900 </v>
    <v>       0.98577500       0.54859700       0.78118100 </v>
    <v>       0.45140300       0.43717800       0.78118100 </v>
    <v>       0.56282200       0.01422500       0.78118100 </v>
    <v>       0.17890100       0.82109900       0.00000000 </v>
    <v>       0.17890100       0.35780200       0.00000000 </v>
    <v>       0.64219800       0.82109900       0.00000000 </v>
    <v>       0.10465200       0.89534800       0.50000000 </v>
    <v>       0.10465200       0.20930400       0.50000000 </v>
    <v>       0.79069600       0.89534800       0.50000000 </v>
    <v>       0.66666700       0.33333300       0.50000000 </v>
    <v>       0.82931000       0.17069000       0.00000000 </v>
    <v>       0.82931000       0.65862000       0.00000000 </v>
    <v>       0.34138000       0.17069000       0.00000000 </v>
    <v>       0.00000000       0.00000000       0.00000000 </v>
    <v>       0.82070400       0.17929600       0.50000000 </v>
    <v>       0.82070400       0.64140700       0.50000000 </v>
    <v>       0.35859300       0.17929600       0.50000000 </v>
   </varray>
  </structure>
  <varray name="forces" >
   <v>       0.03935237       3.55177455       1.92869057 </v>
   <v>      -3.09560327      -1.74180734       1.92869057 </v>
   <v>       3.05625090      -1.80996721       1.92869057 </v>
   <v>       3.09560303      -1.74180734      -1.92869057 </v>
   <v>      -0.03935187       3.55177455      -1.92869057 </v>
   <v>      -3.05625115      -1.80996721      -1.92869057 </v>
   <v>       1.47415968      -0.85110650      -0.00000000 </v>
   <v>       0.00000012       1.70221299      -0.00000000 </v>
   <v>      -1.47415980      -0.85110650      -0.00000000 </v>
   <v>       0.85588444      -0.49414511      -0.00000000 </v>
   <v>       0.00000007       0.98829023      -0.00000000 </v>
   <v>      -0.85588451      -0.49414511      -0.00000000 </v>
   <v>      -0.00000000       0.00000000      -0.00000000 </v>
   <v>      -0.60305233       0.34817242      -0.00000000 </v>
   <v>      -0.00000005      -0.69634485      -0.00000000 </v>
   <v>       0.60305237       0.34817242      -0.00000000 </v>
   <v>      -0.00000000       0.00000000      -0.00000000 </v>
   <v>       0.13117270      -0.07573259      -0.00000000 </v>
   <v>       0.00000001       0.15146518      -0.00000000 </v>
   <v>      -0.13117271      -0.07573259      -0.00000000 </v>
  </varray>
  <varray name="stress" >
   <v>     299.13561037       0.00002082      -0.00000000 </v>
   <v>       0.00002082     299.13559047       0.00000000 </v>
   <v>      -0.00000000       0.00000000     332.81032325 </v>
  </varray>
  <energy>
   <i name="e_fr_energy">   -158.28339081 </i>
   <i name="e_wo_entrp">   -158.22543899 </i>
   <i name="e_0_energy">     -0.11590364 </i>
  </energy>
  <time name="totalsc">   23.07   23.11</time>
 </calculation>
 <calculation>
  <scstep>
   <time name="dav">    0.70    0.70</time>
   <time name="total">    0.79    0.79</time>
   <energy>
    <i name="alphaZ">    392.13520140 </i>
    <i name="ewald">  -4327.37948225 </i>
    <i name="hartreedc">   -948.17625353 </i>
    <i name="XCdc">   -784.30476909 </i>
    <i name="pawpsdc">   9162.27970926 </i>
    <i name="pawaedc">  -8368.86436049 </i>
    <i name="eentropy">     -0.21875837 </i>
    <i name="bandstr">    -27.23075397 </i>
    <i name="atom">   4687.48422623 </i>
    <i name="e_fr_energy">   -214.27524082 </i>
    <i name="e_wo_entrp">   -214.05648245 </i>
    <i name="e_0_energy">   -214.16586163 </i>
   </energy>
  </scstep>
  <scstep>
   <time name="dav">    1.07    1.07</time>
   <time name="total">    1.15    1.16</time>
   <energy>
    <i name="e_fr_energy">   -417.82393679 </i>
    <i name="e_wo_entrp">   -417.76029381 </i>
    <i name="e_0_energy">   -417.79211530 </i>
   </energy>
  </scstep>
  <scstep>
   <time name="dav">    1.07    1.08</time>
   <time name="total">    1.16    1.16</time>
   <energy>
    <i name="e_fr_energy">   -165.68362025 </i>
    <i name="e_wo_entrp">   -165.54776748 </i>
    <i name="e_0_energy">   -165.61569387 </i>
   </energy>
  </scstep>
  <scstep>
   <time name="dav">    1.20    1.20</time>
   <time name="total">    1.29    1.29</time>
   <energy>
    <i name="e_fr_energy">   -188.42226868 </i>
    <i name="e_wo_entrp">   -188.28559727 </i>
    <i name="e_0_energy">   -188.35393298 </i>
   </energy>
  </scstep>
  <scstep>
   <time name="dav">    1.07    1.08</time>
   <time name="total">    1.17    1.17</time>
   <energy>
    <i name="e_fr_energy">   -169.28171977 </i>
    <i name="e_wo_entrp">   -169.07798500 </i>
    <i name="e_0_energy">   -169.17985239 </i>
   </energy>
  </scstep>
  <scstep>
   <time name="dav">    1.03    1.03</time>
   <time name="total">    1.12    1.13</time>
   <energy>
    <i name="e_fr_energy">   -163.88811884 </i>
    <i name="e_wo_entrp">   -163.68514137 </i>
    <i name="e_0_energy">   -163.78663010 </i>
   </energy>
  </scstep>
  <scstep>
   <time name="dav">    1.21    1.22</time>
   <time name="total">    1.30    1.30</time>
   <energy>
    <i name="e_fr_energy">   -161.02945854 </i>
    <i name="e_wo_entrp">   -160.81984144 </i>
    <i name="e_0_energy">   -160.92464999 </i>
   </energy>
  </scstep>
  <scstep>
   <time name="dav">    1.08    1.08</time>
   <time name="total">    1.17    1.17</time>
   <energy>
    <i name="e_fr_energy">   -159.61161416 </i>
    <i name="e_wo_entrp">   -159.37781385 </i>
    <i name="e_0_energy">   -159.49471401 </i>
   </energy>
  </scstep>
  <scstep>
   <time name="dav">    1.07    1.07</time>
   <time name="total">    1.16    1.16</time>
   <energy>
    <i name="e_fr_energy">   -159.48447226 </i>
    <i name="e_wo_entrp">   -159.24925697 </i>
    <i name="e_0_energy">   -159.36686462 </i>
   </energy>
  </scstep>
  <scstep>
   <time name="dav">    1.09    1.10</time>
   <time name="total">    1.18    1.19</time>
   <energy>
    <i name="e_fr_energy">   -159.56722282 </i>
    <i name="e_wo_entrp">   -159.33987665 </i>
    <i name="e_0_energy">   -159.45354973 </i>
   </energy>
  </scstep>
  <scstep>
   <time name="dav">    1.05    1.05</time>
   <time name="total">    1.14    1.14</time>
   <energy>
    <i name="e_fr_energy">   -161.12354261 </i>
    <i name="e_wo_entrp">   -160.90124358 </i>
    <i name="e_0_energy">   -161.01239310 </i>
   </energy>
  </scstep>
  <scstep>
   <time name="dav">    1.18    1.18</time>
   <time name="total">    1.27    1.28</time>
   <energy>
    <i name="e_fr_energy">   -159.02141536 </i>
    <i name="e_wo_entrp">   -158.78027276 </i>
    <i name="e_0_energy">   -158.90084406 </i>
   </energy>
  </scstep>
  <scstep>
   <time name="dav">    0.98    0.99</time>
   <time name="total">    1.08    1.08</time>
   <energy>
    <i name="e_fr_energy">   -158.08080132 </i>
    <i name="e_wo_entrp">   -157.84280594 </i>
    <i name="e_0_energy">   -157.96180363 </i>
   </energy>
  </scstep>
  <scstep>
   <time name="dav">    1.12    1.12</time>
   <time name="total">    1.21    1.21</time>
   <energy>
    <i name="e_fr_energy">   -158.49220711 </i>
    <i name="e_wo_entrp">   -158.25679046 </i>
    <i name="e_0_energy">   -158.37449879 </i>
   </energy>
  </scstep>
  <scstep>
   <time name="dav">    1.06    1.06</time>
   <time name="total">    1.14    1.15</time>
   <energy>
    <i name="e_fr_energy">   -158.19620717 </i>
    <i name="e_wo_entrp">   -157.95462706 </i>
    <i name="e_0_energy">   -158.07541712 </i>
   </energy>
  </scstep>
  <scstep>
   <time name="dav">    1.16    1.16</time>
   <time name="total">    1.25    1.25</time>
   <energy>
    <i name="e_fr_energy">   -157.86231909 </i>
    <i name="e_wo_entrp">   -157.62096093 </i>
    <i name="e_0_energy">   -157.74164001 </i>
   </energy>
  </scstep>
  <scstep>
   <time name="dav">    1.06    1.06</time>
   <time name="total">    1.15    1.15</time>
   <energy>
    <i name="e_fr_energy">   -157.85137972 </i>
    <i name="e_wo_entrp">   -157.61049865 </i>
    <i name="e_0_energy">   -157.73093919 </i>
   </energy>
  </scstep>
  <scstep>
   <time name="dav">    1.08    1.09</time>
   <time name="total">    1.17    1.18</time>
   <energy>
    <i name="e_fr_energy">   -157.84885995 </i>
    <i name="e_wo_entrp">   -157.60811851 </i>
    <i name="e_0_energy">   -157.72848923 </i>
   </energy>
  </scstep>
  <scstep>
   <time name="dav">    1.12    1.12</time>
   <time name="total">    1.20    1.21</time>
   <energy>
    <i name="e_fr_energy">   -157.84816774 </i>
    <i name="e_wo_entrp">   -157.60779448 </i>
    <i name="e_0_energy">   -157.72798111 </i>
   </energy>
  </scstep>
  <scstep>
   <time name="dav">    1.17    1.17</time>
   <time name="total">    1.26    1.26</time>
   <energy>
    <i name="e_fr_energy">   -157.84804078 </i>
    <i name="e_wo_entrp">   -157.60758022 </i>
    <i name="e_0_energy">   -157.72781050 </i>
   </energy>
  </scstep>
  <scstep>
   <time name="dav">    1.08    1.08</time>
   <time name="total">    1.16    1.17</time>
   <energy>
    <i name="e_fr_energy">   -157.84798744 </i>
    <i name="e_wo_entrp">   -157.60748681 </i>
    <i name="e_0_energy">   -157.72773712 </i>
   </energy>
  </scstep>
  <scstep>
   <time name="dav">    0.84    0.84</time>
   <time name="total">    0.93    0.93</time>
   <energy>
    <i name="e_fr_energy">   -157.84797739 </i>
    <i name="e_wo_entrp">   -157.60744558 </i>
    <i name="e_0_energy">   -157.72771149 </i>
   </energy>
  </scstep>
  <scstep>
   <time name="dav">    0.59    0.59</time>
   <time name="total">    0.64    0.64</time>
   <energy>
    <i name="alphaZ">    392.13520140 </i>
    <i name="ewald">  -4327.37948225 </i>
    <i name="hartreedc">  -1164.54258928 </i>
    <i name="XCdc">   -780.57715210 </i>
    <i name="pawpsdc">   6316.66510186 </i>
    <i name="pawaedc">  -5501.40024882 </i>
    <i name="eentropy">     -0.24054566 </i>
    <i name="bandstr">    220.00751067 </i>
    <i name="atom">   4687.48422623 </i>
    <i name="e_fr_energy">   -157.84797795 </i>
    <i name="e_wo_entrp">   -157.60743229 </i>
    <i name="e_0_energy">   -157.72770512 </i>
   </energy>
  </scstep>
  <structure>
   <crystal>
    <varray name="basis" >
     <v>       9.26355151       0.00000007      -0.00000000 </v>
     <v>      -4.63177514       8.02247058       0.00000000 </v>
     <v>      -0.00000000       0.00000000       4.91127360 </v>
    </varray>
    <i name="volume">    364.98900728 </i>
    <varray name="rec_basis" >
     <v>       0.10794996       0.06232493       0.00000000 </v>
     <v>      -0.00000000       0.12464988      -0.00000000 </v>
     <v>       0.00000000      -0.00000000       0.20361317 </v>
    </varray>
   </crystal>
   <varray name="positions" >
    <v>       0.99792904       0.46102838       0.24022350 </v>
    <v>       0.53897162       0.53690066       0.24022350 </v>
    <v>       0.46309934       0.00207096       0.24022350 </v>
    <v>       0.99792904       0.53690066       0.75977650 </v>
    <v>       0.46309934       0.46102838       0.75977650 </v>
    <v>       0.53897162       0.00207096       0.75977650 </v>
    <v>       0.18461623       0.81538377      -0.00000000 </v>
    <v>       0.18461623       0.36923247      -0.00000000 </v>
    <v>       0.63076753       0.81538377      -0.00000000 </v>
    <v>       0.10797021       0.89202979       0.50000000 </v>
    <v>       0.10797021       0.21594043       0.50000000 </v>
    <v>       0.78405957       0.89202979       0.50000000 </v>
    <v>       0.66666700       0.33333300       0.50000000 </v>
    <v>       0.82697200       0.17302800      -0.00000000 </v>
    <v>       0.82697200       0.65394400      -0.00000000 </v>
    <v>       0.34605600       0.17302800      -0.00000000 </v>
    <v>      -0.00000000       0.00000000      -0.00000000 </v>
    <v>       0.82121255       0.17878745       0.50000000 </v>
    <v>       0.82121255       0.64242410       0.50000000 </v>
    <v>       0.35757590       0.17878745       0.50000000 </v>
   </varray>
  </structure>
  <varray name="forces" >
   <v>      -0.48810303       0.49581292      -0.02006636 </v>
   <v>      -0.18533512      -0.67061610      -0.02006636 </v>
   <v>       0.67343815       0.17480318      -0.02006636 </v>
   <v>       0.18533502      -0.67061610       0.02006636 </v>
   <v>       0.48810310       0.49581293       0.02006636 </v>
   <v>      -0.67343812       0.17480317       0.02006636 </v>
   <v>      -0.40265921       0.23247540       0.00000000 </v>
   <v>      -0.00000004      -0.46495081       0.00000000 </v>
   <v>       0.40265925       0.23247541       0.00000000 </v>
   <v>      -0.17652196       0.10191500       0.00000000 </v>
   <v>      -0.00000002      -0.20383001       0.00000000 </v>
   <v>       0.17652198       0.10191501       0.00000000 </v>
   <v>       0.00000000       0.00000000       0.00000000 </v>
   <v>       0.19055140      -0.11001490       0.00000000 </v>
   <v>       0.00000002       0.22002980       0.00000000 </v>
   <v>      -0.19055141      -0.11001490       0.00000000 </v>
   <v>       0.00000000       0.00000000       0.00000000 </v>
   <v>      -0.33794859       0.19511471       0.00000000 </v>
   <v>      -0.00000003      -0.39022942       0.00000000 </v>
   <v>       0.33794862       0.19511471       0.00000000 </v>
  </varray>
  <varray name="stress" >
   <v>    -274.11981705      -0.00002306       0.00000000 </v>
   <v>      -0.00002306    -274.11979500      -0.00000000 </v>
   <v>       0.00000000      -0.00000000    -268.21199099 </v>
  </varray>
  <energy>
   <i name="e_fr_energy">   -157.84797795 </i>
   <i name="e_wo_entrp">   -157.72770512 </i>
   <i name="e_0_energy">     -0.24054566 </i>
  </energy>
  <time name="totalsc">   27.65   27.71</time>
 </calculation>
 <calculation>
  <scstep>
   <time name="dav">    0.66    0.67</time>
   <time name="total">    0.75    0.75</time>
   <energy>
    <i name="alphaZ">    466.68676755 </i>
    <i name="ewald">  -4518.75005543 </i>
    <i name="hartreedc">  -1293.32030918 </i>
    <i name="XCdc">   -769.54180524 </i>
    <i name="pawpsdc">   6316.45581991 </i>
    <i name="pawaedc">  -5501.17724567 </i>
    <i name="eentropy">     -0.12836806 </i>
    <i name="bandstr">    426.74958990 </i>
    <i name="atom">   4687.48422623 </i>
    <i name="e_fr_energy">   -185.54137999 </i>
    <i name="e_wo_entrp">   -185.41301193 </i>
    <i name="e_0_energy">   -185.47719596 </i>
   </energy>
  </scstep>
  <scstep>
   <time name="dav">    1.11    1.11</time>
   <time name="total">    1.20    1.20</time>
   <energy>
    <i name="e_fr_energy">   -311.35200953 </i>
    <i name="e_wo_entrp">   -311.20569313 </i>
    <i name="e_0_energy">   -311.27885133 </i>
   </energy>
  </scstep>
  <scstep>
   <time name="dav">    1.05    1.05</time>
   <time name="total">    1.14    1.14</time>
   <energy>
    <i name="e_fr_energy">   -237.06568941 </i>
    <i name="e_wo_entrp">   -236.88719873 </i>
    <i name="e_0_energy">   -236.97644407 </i>
   </energy>
  </scstep>
  <scstep>
   <time name="dav">    1.10    1.10</time>
   <time name="total">    1.18    1.19</time>
   <energy>
    <i name="e_fr_energy">   -167.62390330 </i>
    <i name="e_wo_entrp">   -167.50507836 </i>
    <i name="e_0_energy">   -167.56449083 </i>
   </energy>
  </scstep>
  <scstep>
   <time name="dav">    1.06    1.06</time>
   <time name="total">    1.14    1.15</time>
   <energy>
    <i name="e_fr_energy">   -164.45123429 </i>
    <i name="e_wo_entrp">   -164.26916228 </i>
    <i name="e_0_energy">   -164.36019829 </i>
   </energy>
  </scstep>
  <scstep>
   <time name="dav">    1.07    1.08</time>
   <time name="total">    1.16    1.16</time>
   <energy>
    <i name="e_fr_energy">   -166.06281991 </i>
    <i name="e_wo_entrp">   -165.89751765 </i>
    <i name="e_0_energy">   -165.98016878 </i>
   </energy>
  </scstep>
  <scstep>
   <time name="dav">    0.99    0.99</time>
   <time name="total">    1.08    1.08</time>
   <energy>
    <i name="e_fr_energy">   -163.72344046 </i>
    <i name="e_wo_entrp">   -163.53284300 </i>
    <i name="e_0_energy">   -163.62814173 </i>
   </energy>
  </scstep>
  <scstep>
   <time name="dav">    1.18    1.18</time>
   <time name="total">    1.27    1.27</time>
   <energy>
    <i name="e_fr_energy">   -163.74844103 </i>
    <i name="e_wo_entrp">   -163.57862161 </i>
    <i name="e_0_energy">   -163.66353132 </i>
   </energy>
  </scstep>
  <scstep>
   <time name="dav">    1.18    1.18</time>
   <time name="total">    1.27    1.27</time>
   <energy>
    <i name="e_fr_energy">   -163.68196239 </i>
    <i name="e_wo_entrp">   -163.50568461 </i>
    <i name="e_0_energy">   -163.59382350 </i>
   </energy>
  </scstep>
  <scstep>
   <time name="dav">    1.22    1.22</time>
   <time name="total">    1.30    1.31</time>
   <energy>
    <i name="e_fr_energy">   -163.58588259 </i>
    <i name="e_wo_entrp">   -163.40297952 </i>
    <i name="e_0_energy">   -163.49443105 </i>
   </energy>
  </scstep>
  <scstep>
   <time name="dav">    1.05    1.05</time>
   <time name="total">    1.14    1.14</time>
   <energy>
    <i name="e_fr_energy">   -163.59291292 </i>
    <i name="e_wo_entrp">   -163.41094595 </i>
    <i name="e_0_energy">   -163.50192944 </i>
   </energy>
  </scstep>
  <scstep>
   <time name="dav">    1.16    1.17</time>
   <time name="total">    1.25    1.26</time>
   <energy>
    <i name="e_fr_energy">   -163.58091763 </i>
    <i name="e_wo_entrp">   -163.40115790 </i>
    <i name="e_0_energy">   -163.49103777 </i>
   </energy>
  </scstep>
  <scstep>
   <time name="dav">    1.05    1.05</time>
   <time name="total">    1.13    1.14</time>
   <energy>
    <i name="e_fr_energy">   -163.57639689 </i>
    <i name="e_wo_entrp">   -163.39701242 </i>
    <i name="e_0_energy">   -163.48670466 </i>
   </energy>
  </scstep>
  <scstep>
   <time name="dav">    1.16    1.16</time>
   <time name="total">    1.24    1.25</time>
   <energy>
    <i name="e_fr_energy">   -163.56811838 </i>
    <i name="e_wo_entrp">   -163.38705513 </i>
    <i name="e_0_energy">   -163.47758676 </i>
   </energy>
  </scstep>
  <scstep>
   <time name="dav">    1.05    1.06</time>
   <time name="total">    1.14    1.14</time>
   <energy>
    <i name="e_fr_energy">   -163.56701411 </i>
    <i name="e_wo_entrp">   -163.38588511 </i>
    <i name="e_0_energy">   -163.47644961 </i>
   </energy>
  </scstep>
  <scstep>
   <time name="dav">    0.98    0.98</time>
   <time name="total">    1.06    1.06</time>
   <energy>
    <i name="e_fr_energy">   -163.56670150 </i>
    <i name="e_wo_entrp">   -163.38565767 </i>
    <i name="e_0_energy">   -163.47617958 </i>
   </energy>
  </scstep>
  <scstep>
   <time name="dav">    1.20    1.20</time>
   <time name="total">    1.28    1.29</time>
   <energy>
    <i name="e_fr_energy">   -163.56581218 </i>
    <i name="e_wo_entrp">   -163.38444360 </i>
    <i name="e_0_energy">   -163.47512789 </i>
   </energy>
  </scstep>
  <scstep>
   <time name="dav">    0.91    0.92</time>
   <time name="total">    1.00    1.01</time>
   <energy>
    <i name="e_fr_energy">   -163.56580581 </i>
    <i name="e_wo_entrp">   -163.38453273 </i>
    <i name="e_0_energy">   -163.47516927 </i>
   </energy>
  </scstep>
  <scstep>
   <time name="dav">    1.00    1.00</time>
   <time name="total">    1.09    1.09</time>
   <energy>
    <i name="e_fr_energy">   -163.56579135 </i>
    <i name="e_wo_entrp">   -163.38455468 </i>
    <i name="e_0_energy">   -163.47517302 </i>
   </energy>
  </scstep>
  <scstep>
   <time name="dav">    0.57    0.57</time>
   <time name="total">    0.63    0.63</time>
   <energy>
    <i name="alphaZ">    466.68676755 </i>
    <i name="ewald">  -4518.75005543 </i>
    <i name="hartreedc">  -1163.58408394 </i>
    <i name="XCdc">   -773.05366671 </i>
    <i name="pawpsdc">   7407.39277279 </i>
    <i name="pawaedc">  -6602.44797329 </i>
    <i name="eentropy">     -0.18125686 </i>
    <i name="bandstr">    332.88747978 </i>
    <i name="atom">   4687.48422623 </i>
    <i name="e_fr_energy">   -163.56578989 </i>
    <i name="e_wo_entrp">   -163.38453304 </i>
    <i name="e_0_energy">   -163.47516146 </i>
   </energy>
  </scstep>
  <structure>
   <crystal>
    <varray name="basis" >
     <v>       8.75821551       0.00000003      -0.00000000 </v>
     <v>      -4.37910720       7.58483683       0.00000000 </v>
     <v>      -0.00000000       0.00000000       4.61666388 </v>
    </varray>
    <i name="volume">    306.68329987 </i>
    <varray name="rec_basis" >
     <v>       0.11417851       0.06592099       0.00000000 </v>
     <v>      -0.00000000       0.13184199      -0.00000000 </v>
     <v>       0.00000000      -0.00000000       0.21660663 </v>
    </varray>
   </crystal>
   <varray name="positions" >
    <v>       0.99224648       0.44987726       0.23033227 </v>
    <v>       0.55012274       0.54236922       0.23033227 </v>
    <v>       0.45763078       0.00775352       0.23033227 </v>
    <v>       0.99224648       0.54236922       0.76966773 </v>
    <v>       0.45763078       0.44987726       0.76966773 </v>
    <v>       0.55012274       0.00775352       0.76966773 </v>
    <v>       0.18194410       0.81805590      -0.00000000 </v>
    <v>       0.18194410       0.36388821      -0.00000000 </v>
    <v>       0.63611179       0.81805590      -0.00000000 </v>
    <v>       0.10641880       0.89358120       0.50000000 </v>
    <v>       0.10641880       0.21283760       0.50000000 </v>
    <v>       0.78716240       0.89358120       0.50000000 </v>
    <v>       0.66666700       0.33333300       0.50000000 </v>
    <v>       0.82806512       0.17193488      -0.00000000 </v>
    <v>       0.82806512       0.65613024      -0.00000000 </v>
    <v>       0.34386976       0.17193488      -0.00000000 </v>
    <v>      -0.00000000       0.00000000      -0.00000000 </v>
    <v>       0.82097478       0.17902522       0.50000000 </v>
    <v>       0.82097478       0.64194856       0.50000000 </v>
    <v>       0.35805144       0.17902522       0.50000000 </v>
   </varray>
  </structure>
  <varray name="forces" >
   <v>      -0.36867738       1.75148926       1.02825549 </v>
   <v>      -1.33249558      -1.19502871       1.02825549 </v>
   <v>       1.70117296      -0.55646055       1.02825549 </v>
   <v>       1.33249541      -1.19502870      -1.02825549 </v>
   <v>       0.36867763       1.75148926      -1.02825549 </v>
   <v>      -1.70117304      -0.55646056      -1.02825549 </v>
   <v>       0.21700254      -0.12528648      -0.00000000 </v>
   <v>       0.00000002       0.25057295       0.00000000 </v>
   <v>      -0.21700256      -0.12528648       0.00000000 </v>
   <v>       0.13965007      -0.08062701      -0.00000000 </v>
   <v>       0.00000001       0.16125402       0.00000000 </v>
   <v>      -0.13965009      -0.08062701       0.00000000 </v>
   <v>      -0.00000000      -0.00000000       0.00000000 </v>
   <v>      -0.14384380       0.08304826       0.00000000 </v>
   <v>      -0.00000001      -0.16609651       0.00000000 </v>
   <v>       0.14384381       0.08304826      -0.00000000 </v>
   <v>      -0.00000000      -0.00000000       0.00000000 </v>
   <v>      -0.07672038       0.04429453       0.00000000 </v>
   <v>      -0.00000001      -0.08858906      -0.00000000 </v>
   <v>       0.07672039       0.04429453      -0.00000000 </v>
  </varray>
  <varray name="stress" >
   <v>     -63.01648691      -0.00000485       0.00000000 </v>
   <v>      -0.00000485     -63.01648227      -0.00000000 </v>
   <v>       0.00000000       0.00000000     -36.35229048 </v>
  </varray>
  <energy>
   <i name="e_fr_energy">   -163.56578989 </i>
   <i name="e_wo_entrp">   -163.47516146 </i>
   <i name="e_0_energy">     -0.18125686 </i>
  </energy>
  <time name="totalsc">   23.94   23.98</time>
 </calculation>
 <calculation>
  <scstep>
   <time name="dav">    0.66    0.66</time>
   <time name="total">    0.75    0.75</time>
   <energy>
    <i name="alphaZ">    470.54725407 </i>
    <i name="ewald">  -4527.65758968 </i>
    <i name="hartreedc">  -1169.81145834 </i>
    <i name="XCdc">   -772.55839412 </i>
    <i name="pawpsdc">   7406.98133977 </i>
    <i name="pawaedc">  -6602.03910387 </i>
    <i name="eentropy">     -0.18229309 </i>
    <i name="bandstr">    343.61315877 </i>
    <i name="atom">   4687.48422623 </i>
    <i name="e_fr_energy">   -163.62286027 </i>
    <i name="e_wo_entrp">   -163.44056718 </i>
    <i name="e_0_energy">   -163.53171372 </i>
   </energy>
  </scstep>
  <scstep>
   <time name="dav">    1.16    1.16</time>
   <time name="total">    1.24    1.25</time>
   <energy>
    <i name="e_fr_energy">   -164.52853828 </i>
    <i name="e_wo_entrp">   -164.35988154 </i>
    <i name="e_0_energy">   -164.44420991 </i>
   </energy>
  </scstep>
  <scstep>
   <time name="dav">    1.13    1.13</time>
   <time name="total">    1.21    1.22</time>
   <energy>
    <i name="e_fr_energy">   -163.56550255 </i>
    <i name="e_wo_entrp">   -163.38627943 </i>
    <i name="e_0_energy">   -163.47589099 </i>
   </energy>
  </scstep>
  <scstep>
   <time name="dav">    0.98    0.99</time>
   <time name="total">    1.07    1.07</time>
   <energy>
    <i name="e_fr_energy">   -163.60139155 </i>
    <i name="e_wo_entrp">   -163.42316399 </i>
    <i name="e_0_energy">   -163.51227777 </i>
   </energy>
  </scstep>
  <scstep>
   <time name="dav">    1.03    1.04</time>
   <time name="total">    1.12    1.12</time>
   <energy>
    <i name="e_fr_energy">   -163.58416353 </i>
    <i name="e_wo_entrp">   -163.40473668 </i>
    <i name="e_0_energy">   -163.49445010 </i>
   </energy>
  </scstep>
  <scstep>
   <time name="dav">    0.99    0.99</time>
   <time name="total">    1.07    1.07</time>
   <energy>
    <i name="e_fr_energy">   -163.58179878 </i>
    <i name="e_wo_entrp">   -163.40359542 </i>
    <i name="e_0_energy">   -163.49269710 </i>
   </energy>
  </scstep>
  <scstep>
   <time name="dav">    1.18    1.19</time>
   <time name="total">    1.27    1.27</time>
   <energy>
    <i name="e_fr_energy">   -163.58019373 </i>
    <i name="e_wo_entrp">   -163.40185247 </i>
    <i name="e_0_energy">   -163.49102310 </i>
   </energy>
  </scstep>
  <scstep>
   <time name="dav">    0.98    0.98</time>
   <time name="total">    1.06    1.07</time>
   <energy>
    <i name="e_fr_energy">   -163.57956741 </i>
    <i name="e_wo_entrp">   -163.40158429 </i>
    <i name="e_0_energy">   -163.49057585 </i>
   </energy>
  </scstep>
  <scstep>
   <time name="dav">    1.01    1.02</time>
   <time name="total">    1.10    1.10</time>
   <energy>
    <i name="e_fr_energy">   -163.57962170 </i>
    <i name="e_wo_entrp">   -163.40170007 </i>
    <i name="e_0_energy">   -163.49066089 </i>
   </energy>
  </scstep>
  <scstep>
   <time name="dav">    0.98    0.98</time>
   <time name="total">    1.07    1.07</time>
   <energy>
    <i name="e_fr_energy">   -163.57954409 </i>
    <i name="e_wo_entrp">   -163.40163215 </i>
    <i name="e_0_energy">   -163.49058812 </i>
   </energy>
  </scstep>
  <scstep>
   <time name="dav">    1.00    1.00</time>
   <time name="total">    1.09    1.09</time>
   <energy>
    <i name="e_fr_energy">   -163.57955608 </i>
    <i name="e_wo_entrp">   -163.40149074 </i>
    <i name="e_0_energy">   -163.49052341 </i>
   </energy>
  </scstep>
  <scstep>
   <time name="dav">    0.77    0.77</time>
   <time name="total">    0.85    0.85</time>
   <energy>
    <i name="e_fr_energy">   -163.57954077 </i>
    <i name="e_wo_entrp">   -163.40160738 </i>
    <i name="e_0_energy">   -163.49057407 </i>
   </energy>
  </scstep>
  <scstep>
   <time name="dav">    0.48    0.48</time>
   <time name="total">    0.53    0.53</time>
   <energy>
    <i name="alphaZ">    470.54725407 </i>
    <i name="ewald">  -4527.65758968 </i>
    <i name="hartreedc">  -1164.14280578 </i>
    <i name="XCdc">   -772.69797252 </i>
    <i name="pawpsdc">   7473.39373529 </i>
    <i name="pawaedc">  -6668.97861870 </i>
    <i name="eentropy">     -0.17791192 </i>
    <i name="bandstr">    338.65014281 </i>
    <i name="atom">   4687.48422623 </i>
    <i name="e_fr_energy">   -163.57954020 </i>
    <i name="e_wo_entrp">   -163.40162829 </i>
    <i name="e_0_energy">   -163.49058424 </i>
   </energy>
  </scstep>
  <structure>
   <crystal>
    <varray name="basis" >
     <v>       8.73501790       0.00000003      -0.00000000 </v>
     <v>      -4.36750839       7.56474711       0.00000000 </v>
     <v>      -0.00000000       0.00000000       4.60313972 </v>
    </varray>
    <i name="volume">    304.16719392 </i>
    <varray name="rec_basis" >
     <v>       0.11448173       0.06609605       0.00000000 </v>
     <v>      -0.00000000       0.13219213      -0.00000000 </v>
     <v>       0.00000000      -0.00000000       0.21724303 </v>
    </varray>
   </crystal>
   <varray name="positions" >
    <v>       0.99197057       0.44933582       0.22984924 </v>
    <v>       0.55066418       0.54263474       0.22984924 </v>
    <v>       0.45736526       0.00802943       0.22984924 </v>
    <v>       0.99197057       0.54263475       0.77015076 </v>
    <v>       0.45736526       0.44933582       0.77015076 </v>
    <v>       0.55066418       0.00802943       0.77015076 </v>
    <v>       0.18181436       0.81818564      -0.00000000 </v>
    <v>       0.18181436       0.36362872      -0.00000000 </v>
    <v>       0.63637128       0.81818564      -0.00000000 </v>
    <v>       0.10634347       0.89365653       0.50000000 </v>
    <v>       0.10634347       0.21268694       0.50000000 </v>
    <v>       0.78731306       0.89365653       0.50000000 </v>
    <v>       0.66666700       0.33333300       0.50000000 </v>
    <v>       0.82811820       0.17188180      -0.00000000 </v>
    <v>       0.82811820       0.65623639      -0.00000000 </v>
    <v>       0.34376361       0.17188180      -0.00000000 </v>
    <v>      -0.00000000       0.00000000      -0.00000000 </v>
    <v>       0.82096323       0.17903677       0.50000000 </v>
    <v>       0.82096323       0.64192547       0.50000000 </v>
    <v>       0.35807453       0.17903677       0.50000000 </v>
   </varray>
  </structure>
  <varray name="forces" >
   <v>      -0.35399776       1.82080061       1.07322424 </v>
   <v>      -1.39986078      -1.21697147       1.07322424 </v>
   <v>       1.75385854      -0.60382914       1.07322424 </v>
   <v>       1.39986060      -1.21697146      -1.07322424 </v>
   <v>       0.35399803       1.82080061      -1.07322424 </v>
   <v>      -1.75385863      -0.60382915      -1.07322424 </v>
   <v>       0.26333418      -0.15203606       0.00000000 </v>
   <v>       0.00000002       0.30407212       0.00000000 </v>
   <v>      -0.26333420      -0.15203606       0.00000000 </v>
   <v>       0.16341485      -0.09434761       0.00000000 </v>
   <v>       0.00000001       0.18869522       0.00000000 </v>
   <v>      -0.16341487      -0.09434761       0.00000000 </v>
   <v>      -0.00000000      -0.00000000       0.00000000 </v>
   <v>      -0.16317701       0.09421029       0.00000000 </v>
   <v>      -0.00000001      -0.18842058       0.00000000 </v>
   <v>       0.16317702       0.09421029       0.00000000 </v>
   <v>      -0.00000000      -0.00000000       0.00000000 </v>
   <v>      -0.06200358       0.03579778       0.00000000 </v>
   <v>      -0.00000001      -0.07159557       0.00000000 </v>
   <v>       0.06200359       0.03579778       0.00000000 </v>
  </varray>
  <varray name="stress" >
   <v>     -50.11825930      -0.00000384      -0.00000000 </v>
   <v>      -0.00000384     -50.11825563       0.00000000 </v>
   <v>      -0.00000000       0.00000000     -22.53445271 </v>
  </varray>
  <energy>
   <i name="e_fr_energy">   -163.57954020 </i>
   <i name="e_wo_entrp">   -163.49058424 </i>
   <i name="e_0_energy">     -0.17791192 </i>
  </energy>
  <time name="totalsc">   14.94   14.96</time>
 </calculation>
 <calculation>
  <scstep>
   <time name="dav">    0.67    0.67</time>
   <time name="total">    0.75    0.75</time>
   <energy>
    <i name="alphaZ">    481.26203164 </i>
    <i name="ewald">  -4619.20370978 </i>
    <i name="hartreedc">  -1125.83579687 </i>
    <i name="XCdc">   -771.54115197 </i>
    <i name="pawpsdc">   7473.55153441 </i>
    <i name="pawaedc">  -6669.13526037 </i>
    <i name="eentropy">     -0.17874073 </i>
    <i name="bandstr">    378.20652801 </i>
    <i name="atom">   4687.48422623 </i>
    <i name="e_fr_energy">   -165.39033942 </i>
    <i name="e_wo_entrp">   -165.21159870 </i>
    <i name="e_0_energy">   -165.30096906 </i>
   </energy>
  </scstep>
  <scstep>
   <time name="dav">    1.14    1.14</time>
   <time name="total">    1.23    1.23</time>
   <energy>
    <i name="e_fr_energy">   -175.05777852 </i>
    <i name="e_wo_entrp">   -174.89544928 </i>
    <i name="e_0_energy">   -174.97661390 </i>
   </energy>
  </scstep>
  <scstep>
   <time name="dav">    1.13    1.13</time>
   <time name="total">    1.22    1.22</time>
   <energy>
    <i name="e_fr_energy">   -165.07910550 </i>
    <i name="e_wo_entrp">   -164.90790045 </i>
    <i name="e_0_energy">   -164.99350298 </i>
   </energy>
  </scstep>
  <scstep>
   <time name="dav">    1.06    1.06</time>
   <time name="total">    1.14    1.14</time>
   <energy>
    <i name="e_fr_energy">   -165.16475870 </i>
    <i name="e_wo_entrp">   -164.98683836 </i>
    <i name="e_0_energy">   -165.07579853 </i>
   </energy>
  </scstep>
  <scstep>
   <time name="dav">    1.18    1.18</time>
   <time name="total">    1.26    1.26</time>
   <energy>
    <i name="e_fr_energy">   -165.19933102 </i>
    <i name="e_wo_entrp">   -165.02041971 </i>
    <i name="e_0_energy">   -165.10987536 </i>
   </energy>
  </scstep>
  <scstep>
   <time name="dav">    1.20    1.20</time>
   <time name="total">    1.29    1.29</time>
   <energy>
    <i name="e_fr_energy">   -165.08278260 </i>
    <i name="e_wo_entrp">   -164.90967440 </i>
    <i name="e_0_energy">   -164.99622850 </i>
   </energy>
  </scstep>
  <scstep>
   <time name="dav">    1.15    1.15</time>
   <time name="total">    1.23    1.24</time>
   <energy>
    <i name="e_fr_energy">   -165.09368837 </i>
    <i name="e_wo_entrp">   -164.91297120 </i>
    <i name="e_0_energy">   -165.00332979 </i>
   </energy>
  </scstep>
  <scstep>
   <time name="dav">    0.98    0.98</time>
   <time name="total">    1.06    1.06</time>
   <energy>
    <i name="e_fr_energy">   -165.05274227 </i>
    <i name="e_wo_entrp">   -164.87728244 </i>
    <i name="e_0_energy">   -164.96501236 </i>
   </energy>
  </scstep>
  <scstep>
   <time name="dav">    1.11    1.12</time>
   <time name="total">    1.20    1.20</time>
   <energy>
    <i name="e_fr_energy">   -165.05425248 </i>
    <i name="e_wo_entrp">   -164.87932521 </i>
    <i name="e_0_energy">   -164.96678884 </i>
   </energy>
  </scstep>
  <scstep>
   <time name="dav">    1.00    1.00</time>
   <time name="total">    1.08    1.09</time>
   <energy>
    <i name="e_fr_energy">   -165.05120534 </i>
    <i name="e_wo_entrp">   -164.87520142 </i>
    <i name="e_0_energy">   -164.96320338 </i>
   </energy>
  </scstep>
  <scstep>
   <time name="dav">    1.03    1.03</time>
   <time name="total">    1.12    1.12</time>
   <energy>
    <i name="e_fr_energy">   -165.05115402 </i>
    <i name="e_wo_entrp">   -164.87546403 </i>
    <i name="e_0_energy">   -164.96330902 </i>
   </energy>
  </scstep>
  <scstep>
   <time name="dav">    0.98    0.98</time>
   <time name="total">    1.07    1.07</time>
   <energy>
    <i name="e_fr_energy">   -165.05120639 </i>
    <i name="e_wo_entrp">   -164.87544845 </i>
    <i name="e_0_energy">   -164.96332742 </i>
   </energy>
  </scstep>
  <scstep>
   <time name="dav">    1.00    1.00</time>
   <time name="total">    1.09    1.09</time>
   <energy>
    <i name="e_fr_energy">   -165.05111748 </i>
    <i name="e_wo_entrp">   -164.87544151 </i>
    <i name="e_0_energy">   -164.96327950 </i>
   </energy>
  </scstep>
  <scstep>
   <time name="dav">    0.90    0.90</time>
   <time name="total">    0.98    0.98</time>
   <energy>
    <i name="e_fr_energy">   -165.05109365 </i>
    <i name="e_wo_entrp">   -164.87543188 </i>
    <i name="e_0_energy">   -164.96326276 </i>
   </energy>
  </scstep>
  <scstep>
   <time name="dav">    0.53    0.53</time>
   <time name="total">    0.58    0.58</time>
   <energy>
    <i name="alphaZ">    481.26203164 </i>
    <i name="ewald">  -4619.20370978 </i>
    <i name="hartreedc">  -1103.26535121 </i>
    <i name="XCdc">   -772.05922283 </i>
    <i name="pawpsdc">   7508.65397940 </i>
    <i name="pawaedc">  -6704.94716872 </i>
    <i name="eentropy">     -0.17565981 </i>
    <i name="bandstr">    357.19978309 </i>
    <i name="atom">   4687.48422623 </i>
    <i name="e_fr_energy">   -165.05109199 </i>
    <i name="e_wo_entrp">   -164.87543219 </i>
    <i name="e_0_energy">   -164.96326209 </i>
   </energy>
  </scstep>
  <structure>
   <crystal>
    <varray name="basis" >
     <v>       8.63417269       0.00000002      -0.00000000 </v>
     <v>      -4.31708580       7.47741261       0.00000000 </v>
     <v>      -0.00000000       0.00000000       4.60640307 </v>
    </varray>
    <i name="volume">    297.39524099 </i>
    <varray name="rec_basis" >
     <v>       0.11581886       0.06686804       0.00000000 </v>
     <v>      -0.00000000       0.13373610      -0.00000000 </v>
     <v>       0.00000000      -0.00000000       0.21708912 </v>
    </varray>
   </crystal>
   <varray name="positions" >
    <v>       0.99628123       0.46140714       0.24141041 </v>
    <v>       0.53859286       0.53487409       0.24141041 </v>
    <v>       0.46512591       0.00371877       0.24141041 </v>
    <v>       0.99628123       0.53487409       0.75858959 </v>
    <v>       0.46512591       0.46140714       0.75858959 </v>
    <v>       0.53859286       0.00371877       0.75858959 </v>
    <v>       0.18309205       0.81690795       0.00000000 </v>
    <v>       0.18309205       0.36618410       0.00000000 </v>
    <v>       0.63381590       0.81690795       0.00000000 </v>
    <v>       0.10711981       0.89288019       0.50000000 </v>
    <v>       0.10711981       0.21423962       0.50000000 </v>
    <v>       0.78576038       0.89288019       0.50000000 </v>
    <v>       0.66666700       0.33333300       0.50000000 </v>
    <v>       0.82741364       0.17258636       0.00000000 </v>
    <v>       0.82741364       0.65482729       0.00000000 </v>
    <v>       0.34517271       0.17258636       0.00000000 </v>
    <v>      -0.00000000      -0.00000000       0.00000000 </v>
    <v>       0.82079671       0.17920329       0.50000000 </v>
    <v>       0.82079671       0.64159243       0.50000000 </v>
    <v>       0.35840757       0.17920329       0.50000000 </v>
   </varray>
  </structure>
  <varray name="forces" >
   <v>      -0.22805198       1.69800727       0.50705881 </v>
   <v>      -1.35649151      -1.04650254       0.50705881 </v>
   <v>       1.58454349      -0.65150473       0.50705881 </v>
   <v>       1.35649136      -1.04650254      -0.50705881 </v>
   <v>       0.22805222       1.69800727      -0.50705881 </v>
   <v>      -1.58454358      -0.65150474      -0.50705881 </v>
   <v>       0.24878215      -0.14363444       0.00000000 </v>
   <v>       0.00000002       0.28726889       0.00000000 </v>
   <v>      -0.24878217      -0.14363444       0.00000000 </v>
   <v>       0.28822899      -0.16640908       0.00000000 </v>
   <v>       0.00000002       0.33281817       0.00000000 </v>
   <v>      -0.28822901      -0.16640909       0.00000000 </v>
   <v>       0.00000000      -0.00000000       0.00000000 </v>
   <v>      -0.04678872       0.02701348       0.00000000 </v>
   <v>      -0.00000000      -0.05402696       0.00000000 </v>
   <v>       0.04678873       0.02701348       0.00000000 </v>
   <v>       0.00000000      -0.00000000       0.00000000 </v>
   <v>      -0.28144840       0.16249431       0.00000000 </v>
   <v>      -0.00000002      -0.32498862       0.00000000 </v>
   <v>       0.28144843       0.16249431       0.00000000 </v>
  </varray>
  <varray name="stress" >
   <v>     -33.65569010      -0.00000251       0.00000000 </v>
   <v>      -0.00000251     -33.65568770       0.00000000 </v>
   <v>      -0.00000000       0.00000000     -28.99146858 </v>
  </varray>
  <energy>
   <i name="e_fr_energy">   -165.05109199 </i>
   <i name="e_wo_entrp">   -164.96326209 </i>
   <i name="e_0_energy">     -0.17565981 </i>
  </energy>
  <time name="totalsc">   17.82   17.86</time>
 </calculation>
 <calculation>
  <scstep>
   <time name="dav">    0.69    0.69</time>
   <time name="total">    0.78    0.78</time>
   <energy>
    <i name="alphaZ">    503.11304899 </i>
    <i name="ewald">  -4770.43860849 </i>
    <i name="hartreedc">  -1050.65018582 </i>
    <i name="XCdc">   -769.69347504 </i>
    <i name="pawpsdc">   7508.69295575 </i>
    <i name="pawaedc">  -6704.98554890 </i>
    <i name="eentropy">     -0.13941757 </i>
    <i name="bandstr">    429.60737030 </i>
    <i name="atom">   4687.48422623 </i>
    <i name="e_fr_energy">   -167.00963455 </i>
    <i name="e_wo_entrp">   -166.87021698 </i>
    <i name="e_0_energy">   -166.93992577 </i>
   </energy>
  </scstep>
  <scstep>
   <time name="dav">    1.09    1.09</time>
   <time name="total">    1.17    1.18</time>
   <energy>
    <i name="e_fr_energy">   -190.09742086 </i>
    <i name="e_wo_entrp">   -189.95896443 </i>
    <i name="e_0_energy">   -190.02819265 </i>
   </energy>
  </scstep>
  <scstep>
   <time name="dav">    1.10    1.10</time>
   <time name="total">    1.19    1.19</time>
   <energy>
    <i name="e_fr_energy">   -166.94815361 </i>
    <i name="e_wo_entrp">   -166.79954172 </i>
    <i name="e_0_energy">   -166.87384766 </i>
   </energy>
  </scstep>
  <scstep>
   <time name="dav">    1.05    1.05</time>
   <time name="total">    1.13    1.13</time>
   <energy>
    <i name="e_fr_energy">   -166.96291141 </i>
    <i name="e_wo_entrp">   -166.81321827 </i>
    <i name="e_0_energy">   -166.88806484 </i>
   </energy>
  </scstep>
  <scstep>
   <time name="dav">    1.02    1.02</time>
   <time name="total">    1.10    1.11</time>
   <energy>
    <i name="e_fr_energy">   -166.81546408 </i>
    <i name="e_wo_entrp">   -166.66184059 </i>
    <i name="e_0_energy">   -166.73865234 </i>
   </energy>
  </scstep>
  <scstep>
   <time name="dav">    1.15    1.15</time>
   <time name="total">    1.24    1.24</time>
   <energy>
    <i name="e_fr_energy">   -166.73319945 </i>
    <i name="e_wo_entrp">   -166.58252083 </i>
    <i name="e_0_energy">   -166.65786014 </i>
   </energy>
  </scstep>
  <scstep>
   <time name="dav">    1.16    1.16</time>
   <time name="total">    1.24    1.25</time>
   <energy>
    <i name="e_fr_energy">   -166.62238279 </i>
    <i name="e_wo_entrp">   -166.46884171 </i>
    <i name="e_0_energy">   -166.54561225 </i>
   </energy>
  </scstep>
  <scstep>
   <time name="dav">    1.00    1.01</time>
   <time name="total">    1.09    1.10</time>
   <energy>
    <i name="e_fr_energy">   -166.55403714 </i>
    <i name="e_wo_entrp">   -166.39558687 </i>
    <i name="e_0_energy">   -166.47481201 </i>
   </energy>
  </scstep>
  <scstep>
   <time name="dav">    1.19    1.19</time>
   <time name="total">    1.27    1.27</time>
   <energy>
    <i name="e_fr_energy">   -166.52572188 </i>
    <i name="e_wo_entrp">   -166.37034354 </i>
    <i name="e_0_energy">   -166.44803271 </i>
   </energy>
  </scstep>
  <scstep>
   <time name="dav">    1.01    1.01</time>
   <time name="total">    1.09    1.09</time>
   <energy>
    <i name="e_fr_energy">   -166.51872222 </i>
    <i name="e_wo_entrp">   -166.36138641 </i>
    <i name="e_0_energy">   -166.44005432 </i>
   </energy>
  </scstep>
  <scstep>
   <time name="dav">    1.16    1.16</time>
   <time name="total">    1.25    1.25</time>
   <energy>
    <i name="e_fr_energy">   -166.51434876 </i>
    <i name="e_wo_entrp">   -166.35792511 </i>
    <i name="e_0_energy">   -166.43613694 </i>
   </energy>
  </scstep>
  <scstep>
   <time name="dav">    1.00    1.00</time>
   <time name="total">    1.09    1.09</time>
   <energy>
    <i name="e_fr_energy">   -166.51473011 </i>
    <i name="e_wo_entrp">   -166.35855256 </i>
    <i name="e_0_energy">   -166.43664133 </i>
   </energy>
  </scstep>
  <scstep>
   <time name="dav">    0.96    0.96</time>
   <time name="total">    1.05    1.05</time>
   <energy>
    <i name="e_fr_energy">   -166.51423402 </i>
    <i name="e_wo_entrp">   -166.35767025 </i>
    <i name="e_0_energy">   -166.43595213 </i>
   </energy>
  </scstep>
  <scstep>
   <time name="dav">    1.15    1.15</time>
   <time name="total">    1.24    1.24</time>
   <energy>
    <i name="e_fr_energy">   -166.51412644 </i>
    <i name="e_wo_entrp">   -166.35769075 </i>
    <i name="e_0_energy">   -166.43590860 </i>
   </energy>
  </scstep>
  <scstep>
   <time name="dav">    1.12    1.12</time>
   <time name="total">    1.21    1.21</time>
   <energy>
    <i name="e_fr_energy">   -166.51407618 </i>
    <i name="e_wo_entrp">   -166.35769476 </i>
    <i name="e_0_energy">   -166.43588547 </i>
   </energy>
  </scstep>
  <scstep>
   <time name="dav">    0.57    0.57</time>
   <time name="total">    0.62    0.62</time>
   <energy>
    <i name="alphaZ">    503.11304899 </i>
    <i name="ewald">  -4770.43860849 </i>
    <i name="hartreedc">  -1011.37166019 </i>
    <i name="XCdc">   -770.69295579 </i>
    <i name="pawpsdc">   7679.11724822 </i>
    <i name="pawaedc">  -6877.10253085 </i>
    <i name="eentropy">     -0.15638688 </i>
    <i name="bandstr">    393.53354672 </i>
    <i name="atom">   4687.48422623 </i>
    <i name="e_fr_energy">   -166.51407205 </i>
    <i name="e_wo_entrp">   -166.35768517 </i>
    <i name="e_0_energy">   -166.43587861 </i>
   </energy>
  </scstep>
  <structure>
   <crystal>
    <varray name="basis" >
     <v>       8.43880432       0.00000001      -0.00000000 </v>
     <v>      -4.21940165       7.30821867       0.00000000 </v>
     <v>      -0.00000000       0.00000000       4.61272520 </v>
    </varray>
    <i name="volume">    284.47888236 </i>
    <varray name="rec_basis" >
     <v>       0.11850020       0.06841612       0.00000000 </v>
     <v>      -0.00000000       0.13683225      -0.00000000 </v>
     <v>       0.00000000      -0.00000000       0.21679158 </v>
    </varray>
   </crystal>
   <varray name="positions" >
    <v>       0.00472985       0.48506616       0.26379211 </v>
    <v>       0.51493384       0.51966369       0.26379211 </v>
    <v>       0.48033631      -0.00472985       0.26379211 </v>
    <v>       0.00472985       0.51966369       0.73620789 </v>
    <v>       0.48033631       0.48506616       0.73620789 </v>
    <v>       0.51493384      -0.00472985       0.73620789 </v>
    <v>       0.18559625       0.81440375       0.00000000 </v>
    <v>       0.18559625       0.37119249       0.00000000 </v>
    <v>       0.62880751       0.81440375       0.00000000 </v>
    <v>       0.10864138       0.89135862       0.50000000 </v>
    <v>       0.10864138       0.21728276       0.50000000 </v>
    <v>       0.78271724       0.89135862       0.50000000 </v>
    <v>       0.66666700       0.33333300       0.50000000 </v>
    <v>       0.82603277       0.17396723       0.00000000 </v>
    <v>       0.82603277       0.65206553       0.00000000 </v>
    <v>       0.34793447       0.17396723       0.00000000 </v>
    <v>      -0.00000000      -0.00000000       0.00000000 </v>
    <v>       0.82047034       0.17952966       0.50000000 </v>
    <v>       0.82047034       0.64093968       0.50000000 </v>
    <v>       0.35906032       0.17952966       0.50000000 </v>
   </varray>
  </structure>
  <varray name="forces" >
   <v>       0.27699905       1.01872162      -0.77658401 </v>
   <v>      -1.02073834      -0.26947267      -0.77658401 </v>
   <v>       0.74373929      -0.74924895      -0.77658401 </v>
   <v>       1.02073830      -0.26947266       0.77658401 </v>
   <v>      -0.27699891       1.01872162       0.77658401 </v>
   <v>      -0.74373939      -0.74924895       0.77658401 </v>
   <v>       0.30269047      -0.17475842      -0.00000000 </v>
   <v>       0.00000002       0.34951685      -0.00000000 </v>
   <v>      -0.30269049      -0.17475842      -0.00000000 </v>
   <v>       0.45946111      -0.26527000      -0.00000000 </v>
   <v>       0.00000004       0.53053999      -0.00000000 </v>
   <v>      -0.45946115      -0.26527000      -0.00000000 </v>
   <v>      -0.00000000       0.00000000      -0.00000000 </v>
   <v>       0.14669027      -0.08469167      -0.00000000 </v>
   <v>       0.00000001       0.16938333      -0.00000000 </v>
   <v>      -0.14669028      -0.08469167      -0.00000000 </v>
   <v>      -0.00000000       0.00000000      -0.00000000 </v>
   <v>      -0.75621338       0.43660000      -0.00000000 </v>
   <v>      -0.00000006      -0.87320001      -0.00000000 </v>
   <v>       0.75621345       0.43660000      -0.00000000 </v>
  </varray>
  <varray name="stress" >
   <v>       4.31946562       0.00000031      -0.00000000 </v>
   <v>       0.00000031       4.31946533       0.00000000 </v>
   <v>      -0.00000000      -0.00000000       7.81160581 </v>
  </varray>
  <energy>
   <i name="e_fr_energy">   -166.51407205 </i>
   <i name="e_wo_entrp">   -166.43587861 </i>
   <i name="e_0_energy">     -0.15638688 </i>
  </energy>
  <time name="totalsc">   19.28   19.31</time>
 </calculation>
 <calculation>
  <scstep>
   <time name="dav">    0.65    0.65</time>
   <time name="total">    0.74    0.74</time>
   <energy>
    <i name="alphaZ">    510.32881535 </i>
    <i name="ewald">  -4810.92384444 </i>
    <i name="hartreedc">  -1000.06495896 </i>
    <i name="XCdc">   -769.93453012 </i>
    <i name="pawpsdc">   7679.07414280 </i>
    <i name="pawaedc">  -6877.05618908 </i>
    <i name="eentropy">     -0.14325120 </i>
    <i name="bandstr">    414.55759086 </i>
    <i name="atom">   4687.48422623 </i>
    <i name="e_fr_energy">   -166.67799856 </i>
    <i name="e_wo_entrp">   -166.53474736 </i>
    <i name="e_0_energy">   -166.60637296 </i>
   </energy>
  </scstep>
  <scstep>
   <time name="dav">    1.16    1.16</time>
   <time name="total">    1.25    1.25</time>
   <energy>
    <i name="e_fr_energy">   -170.22353845 </i>
    <i name="e_wo_entrp">   -170.08601675 </i>
    <i name="e_0_energy">   -170.15477760 </i>
   </energy>
  </scstep>
  <scstep>
   <time name="dav">    1.14    1.14</time>
   <time name="total">    1.23    1.23</time>
   <energy>
    <i name="e_fr_energy">   -166.57476498 </i>
    <i name="e_wo_entrp">   -166.43531953 </i>
    <i name="e_0_energy">   -166.50504225 </i>
   </energy>
  </scstep>
  <scstep>
   <time name="dav">    0.93    0.93</time>
   <time name="total">    1.01    1.01</time>
   <energy>
    <i name="e_fr_energy">   -166.66560595 </i>
    <i name="e_wo_entrp">   -166.52114852 </i>
    <i name="e_0_energy">   -166.59337724 </i>
   </energy>
  </scstep>
  <scstep>
   <time name="dav">    1.05    1.05</time>
   <time name="total">    1.14    1.14</time>
   <energy>
    <i name="e_fr_energy">   -166.64190289 </i>
    <i name="e_wo_entrp">   -166.49584121 </i>
    <i name="e_0_energy">   -166.56887205 </i>
   </energy>
  </scstep>
  <scstep>
   <time name="dav">    1.04    1.05</time>
   <time name="total">    1.13    1.13</time>
   <energy>
    <i name="e_fr_energy">   -166.63815954 </i>
    <i name="e_wo_entrp">   -166.49631174 </i>
    <i name="e_0_energy">   -166.56723564 </i>
   </energy>
  </scstep>
  <scstep>
   <time name="dav">    1.20    1.20</time>
   <time name="total">    1.28    1.29</time>
   <energy>
    <i name="e_fr_energy">   -166.62487254 </i>
    <i name="e_wo_entrp">   -166.48078715 </i>
    <i name="e_0_energy">   -166.55282985 </i>
   </energy>
  </scstep>
  <scstep>
   <time name="dav">    0.96    0.97</time>
   <time name="total">    1.05    1.05</time>
   <energy>
    <i name="e_fr_energy">   -166.62044439 </i>
[...]
       <r>    6.5087    0.0000 </r>
       <r>    6.5087    0.0000 </r>
       <r>    6.5736    0.0000 </r>
       <r>    6.6081    0.0000 </r>
       <r>    6.8467    0.0000 </r>
       <r>    6.8467    0.0000 </r>
       <r>    6.9161    0.0000 </r>
       <r>    6.9624    0.0000 </r>
      </set>
      <set comment="kpoint 4">
       <r>    0.7806    1.0000 </r>
       <r>    0.9843    1.0000 </r>
       <r>    1.9870    1.0000 </r>
       <r>    2.2117    1.0000 </r>
       <r>    2.3721    1.0000 </r>
       <r>    2.5991    1.0000 </r>
       <r>    2.7216    1.0000 </r>
       <r>    2.7594    1.0000 </r>
       <r>    2.7795    1.0000 </r>
       <r>    2.9329    1.0000 </r>
       <r>    3.0412    1.0000 </r>
       <r>    3.0807    1.0000 </r>
       <r>    3.0851    1.0000 </r>
       <r>    3.1536    1.0000 </r>
       <r>    3.3143    1.0000 </r>
       <r>    3.3731    1.0000 </r>
       <r>    3.4423    1.0000 </r>
       <r>    3.5430    1.0000 </r>
       <r>    3.5900    1.0000 </r>
       <r>    3.6091    1.0000 </r>
       <r>    3.6625    1.0000 </r>
       <r>    3.8038    1.0000 </r>
       <r>    3.9206    1.0000 </r>
       <r>    4.0492    1.0000 </r>
       <r>    4.0525    1.0000 </r>
       <r>    4.1132    1.0000 </r>
       <r>    4.2083    1.0000 </r>
       <r>    4.2355    1.0000 </r>
       <r>    4.2579    1.0000 </r>
       <r>    4.3447    1.0000 </r>
       <r>    4.4105    1.0000 </r>
       <r>    4.4454    1.0000 </r>
       <r>    4.5361    1.0000 </r>
       <r>    4.6226    1.0000 </r>
       <r>    4.6979    1.0000 </r>
       <r>    4.7980    1.0000 </r>
       <r>    4.8124    1.0000 </r>
       <r>    4.8993    1.0000 </r>
       <r>    4.9537    1.0000 </r>
       <r>    4.9910    1.0000 </r>
       <r>    5.0423    1.0000 </r>
       <r>    5.1227    1.0000 </r>
       <r>    5.2142    1.0000 </r>
       <r>    5.2586    1.0000 </r>
       <r>    5.4056    1.0000 </r>
       <r>    5.4276    1.0000 </r>
       <r>    5.4929    1.0000 </r>
       <r>    5.5491    1.0000 </r>
       <r>    5.6896    1.0000 </r>
       <r>    5.6973    1.0000 </r>
       <r>    5.8606    0.9986 </r>
       <r>    5.8922    0.9944 </r>
       <r>    5.9601    0.9422 </r>
       <r>    6.0313    0.7145 </r>
       <r>    6.0385    0.6786 </r>
       <r>    6.2195    0.0180 </r>
       <r>    6.2532    0.0051 </r>
       <r>    6.2747    0.0020 </r>
       <r>    6.4750    0.0000 </r>
       <r>    6.5135    0.0000 </r>
       <r>    6.5782    0.0000 </r>
       <r>    6.6717    0.0000 </r>
       <r>    6.7215    0.0000 </r>
       <r>    6.7643    0.0000 </r>
       <r>    6.8888    0.0000 </r>
       <r>    6.9509    0.0000 </r>
       <r>    7.0209    0.0000 </r>
       <r>    7.0534    0.0000 </r>
      </set>
     </set>
    </set>
   </array>
  </eigenvalues>
  <separator name="orbital magnetization" >
   <v name="MAGDIPOLOUT">      0.00000000      0.00000000      0.00000000</v>
  </separator>
  <dos>
   <i name="efermi">      6.07134230 </i>
   <total>
    <array>
     <dimension dim="1">gridpoints</dimension>
     <dimension dim="2">spin</dimension>
     <field>energy</field>
     <field>total</field>
     <field>integrated</field>
     <set>
      <set comment="spin 1">
       <r>    -1.7483     0.0000     0.0000 </r>
       <r>    -1.7154     0.0000     0.0000 </r>
       <r>    -1.6825     0.0000     0.0000 </r>
       <r>    -1.6496     0.0000     0.0000 </r>
       <r>    -1.6168     0.0000     0.0000 </r>
       <r>    -1.5839     0.0000     0.0000 </r>
       <r>    -1.5510     0.0000     0.0000 </r>
       <r>    -1.5181     0.0000     0.0000 </r>
       <r>    -1.4852     0.0000     0.0000 </r>
       <r>    -1.4523     0.0000     0.0000 </r>
       <r>    -1.4194     0.0000     0.0000 </r>
       <r>    -1.3865     0.0000     0.0000 </r>
       <r>    -1.3537     0.0000     0.0000 </r>
       <r>    -1.3208     0.0000     0.0000 </r>
       <r>    -1.2879     0.0000     0.0000 </r>
       <r>    -1.2550     0.0000     0.0000 </r>
       <r>    -1.2221     0.0000     0.0000 </r>
       <r>    -1.1892     0.0000     0.0000 </r>
       <r>    -1.1563     0.0000     0.0000 </r>
       <r>    -1.1235     0.0000     0.0000 </r>
       <r>    -1.0906     0.0000     0.0000 </r>
       <r>    -1.0577     0.0000     0.0000 </r>
       <r>    -1.0248     0.0002     0.0000 </r>
       <r>    -0.9919     0.0012     0.0000 </r>
       <r>    -0.9590     0.0059     0.0002 </r>
       <r>    -0.9261     0.0229     0.0010 </r>
       <r>    -0.8932     0.0721     0.0034 </r>
       <r>    -0.8604     0.1841     0.0094 </r>
       <r>    -0.8275     0.3797     0.0219 </r>
       <r>    -0.7946     0.6332     0.0427 </r>
       <r>    -0.7617     0.8539     0.0708 </r>
       <r>    -0.7288     0.9311     0.1014 </r>
       <r>    -0.6959     0.8209     0.1284 </r>
       <r>    -0.6630     0.5853     0.1477 </r>
       <r>    -0.6302     0.3374     0.1588 </r>
       <r>    -0.5973     0.1573     0.1639 </r>
       <r>    -0.5644     0.0593     0.1659 </r>
       <r>    -0.5315     0.0181     0.1665 </r>
       <r>    -0.4986     0.0044     0.1666 </r>
       <r>    -0.4657     0.0009     0.1667 </r>
       <r>    -0.4328     0.0001     0.1667 </r>
       <r>    -0.3999     0.0000     0.1667 </r>
       <r>    -0.3671     0.0000     0.1667 </r>
       <r>    -0.3342     0.0000     0.1667 </r>
       <r>    -0.3013     0.0003     0.1667 </r>
       <r>    -0.2684     0.0022     0.1668 </r>
       <r>    -0.2355     0.0112     0.1671 </r>
       <r>    -0.2026     0.0467     0.1687 </r>
       <r>    -0.1697     0.1572     0.1738 </r>
       <r>    -0.1369     0.4279     0.1879 </r>
       <r>    -0.1040     0.9431     0.2189 </r>
       <r>    -0.0711     1.6887     0.2745 </r>
       <r>    -0.0382     2.4750     0.3558 </r>
       <r>    -0.0053     3.0254     0.4553 </r>
       <r>     0.0276     3.2249     0.5614 </r>
       <r>     0.0605     3.2625     0.6687 </r>
       <r>     0.0934     3.4499     0.7821 </r>
       <r>     0.1262     3.8780     0.9097 </r>
       <r>     0.1591     4.2894     1.0507 </r>
       <r>     0.1920     4.2953     1.1920 </r>
       <r>     0.2249     3.7117     1.3141 </r>
       <r>     0.2578     2.7039     1.4030 </r>
       <r>     0.2907     1.6396     1.4569 </r>
       <r>     0.3236     0.8208     1.4839 </r>
       <r>     0.3564     0.3372     1.4950 </r>
       <r>     0.3893     0.1132     1.4987 </r>
       <r>     0.4222     0.0309     1.4997 </r>
       <r>     0.4551     0.0069     1.5000 </r>
       <r>     0.4880     0.0017     1.5000 </r>
       <r>     0.5209     0.0033     1.5001 </r>
       <r>     0.5538     0.0167     1.5007 </r>
       <r>     0.5867     0.0723     1.5030 </r>
       <r>     0.6195     0.2533     1.5114 </r>
       <r>     0.6524     0.7170     1.5350 </r>
       <r>     0.6853     1.6414     1.5889 </r>
       <r>     0.7182     3.0392     1.6889 </r>
       <r>     0.7511     4.5567     1.8387 </r>
       <r>     0.7840     5.5540     2.0214 </r>
       <r>     0.8169     5.5819     2.2050 </r>
       <r>     0.8497     4.8524     2.3645 </r>
       <r>     0.8826     4.1447     2.5008 </r>
       <r>     0.9155     4.1502     2.6373 </r>
       <r>     0.9484     4.8636     2.7973 </r>
       <r>     0.9813     5.5876     2.9810 </r>
       <r>     1.0142     5.5469     3.1635 </r>
       <r>     1.0471     4.5391     3.3127 </r>
       <r>     1.0800     3.0193     3.4120 </r>
       <r>     1.1128     1.6265     3.4655 </r>
       <r>     1.1457     0.7106     3.4889 </r>
       <r>     1.1786     0.2607     3.4975 </r>
       <r>     1.2115     0.1174     3.5013 </r>
       <r>     1.2444     0.1724     3.5070 </r>
       <r>     1.2773     0.4278     3.5211 </r>
       <r>     1.3102     0.9351     3.5518 </r>
       <r>     1.3430     1.6631     3.6065 </r>
       <r>     1.3759     2.3938     3.6852 </r>
       <r>     1.4088     2.7917     3.7770 </r>
       <r>     1.4417     2.6568     3.8644 </r>
       <r>     1.4746     2.1277     3.9344 </r>
       <r>     1.5075     1.6088     3.9873 </r>
       <r>     1.5404     1.4846     4.0361 </r>
       <r>     1.5732     1.8722     4.0977 </r>
       <r>     1.6061     2.5697     4.1822 </r>
       <r>     1.6390     3.2106     4.2878 </r>
       <r>     1.6719     3.5162     4.4034 </r>
       <r>     1.7048     3.4386     4.5165 </r>
       <r>     1.7377     3.0792     4.6178 </r>
       <r>     1.7706     2.5471     4.7015 </r>
       <r>     1.8035     1.9655     4.7662 </r>
       <r>     1.8363     1.5722     4.8179 </r>
       <r>     1.8692     1.7194     4.8744 </r>
       <r>     1.9021     2.7024     4.9633 </r>
       <r>     1.9350     4.4886     5.1109 </r>
       <r>     1.9679     6.5418     5.3261 </r>
       <r>     2.0008     8.0277     5.5901 </r>
       <r>     2.0337     8.4360     5.8675 </r>
       <r>     2.0665     8.0981     6.1338 </r>
       <r>     2.0994     7.9764     6.3961 </r>
       <r>     2.1323     8.7880     6.6851 </r>
       <r>     2.1652    10.2763     7.0231 </r>
       <r>     2.1981    11.3903     7.3977 </r>
       <r>     2.2310    11.2657     7.7682 </r>
       <r>     2.2639    10.0460     8.0985 </r>
       <r>     2.2968     8.6821     8.3841 </r>
       <r>     2.3296     7.9621     8.6459 </r>
       <r>     2.3625     7.8724     8.9048 </r>
       <r>     2.3954     7.9207     9.1653 </r>
       <r>     2.4283     7.8759     9.4243 </r>
       <r>     2.4612     8.0104     9.6877 </r>
       <r>     2.4941     8.7372     9.9751 </r>
       <r>     2.5270    10.2683    10.3128 </r>
       <r>     2.5598    12.6280    10.7281 </r>
       <r>     2.5927    15.7433    11.2458 </r>
       <r>     2.6256    19.4032    11.8839 </r>
       <r>     2.6585    23.2152    12.6474 </r>
       <r>     2.6914    26.6084    13.5224 </r>
       <r>     2.7243    28.8355    14.4707 </r>
       <r>     2.7572    29.1745    15.4302 </r>
       <r>     2.7901    27.4891    16.3342 </r>
       <r>     2.8229    24.6737    17.1457 </r>
       <r>     2.8558    22.2837    17.8785 </r>
       <r>     2.8887    21.4933    18.5853 </r>
       <r>     2.9216    22.4062    19.3222 </r>
       <r>     2.9545    24.3565    20.1232 </r>
       <r>     2.9874    26.6496    20.9996 </r>
       <r>     3.0203    28.8061    21.9470 </r>
       <r>     3.0531    30.2619    22.9422 </r>
       <r>     3.0860    30.3093    23.9389 </r>
       <r>     3.1189    28.6247    24.8803 </r>
       <r>     3.1518    25.7487    25.7271 </r>
       <r>     3.1847    22.9256    26.4810 </r>
       <r>     3.2176    21.4826    27.1875 </r>
       <r>     3.2505    22.1506    27.9160 </r>
       <r>     3.2834    24.5511    28.7234 </r>
       <r>     3.3162    27.2501    29.6196 </r>
       <r>     3.3491    28.6605    30.5621 </r>
       <r>     3.3820    28.1946    31.4893 </r>
       <r>     3.4149    26.6249    32.3649 </r>
       <r>     3.4478    25.4485    33.2019 </r>
       <r>     3.4807    25.9553    34.0554 </r>
       <r>     3.5136    28.5511    34.9944 </r>
       <r>     3.5464    32.4174    36.0605 </r>
       <r>     3.5793    35.7228    37.2353 </r>
       <r>     3.6122    36.6113    38.4393 </r>
       <r>     3.6451    34.4410    39.5720 </r>
       <r>     3.6780    30.2210    40.5658 </r>
       <r>     3.7109    25.8597    41.4163 </r>
       <r>     3.7438    22.9007    42.1694 </r>
       <r>     3.7767    21.7209    42.8837 </r>
       <r>     3.8095    21.7148    43.5978 </r>
       <r>     3.8424    22.1894    44.3276 </r>
       <r>     3.8753    23.0109    45.0843 </r>
       <r>     3.9082    24.3740    45.8859 </r>
       <r>     3.9411    26.2552    46.7493 </r>
       <r>     3.9740    28.3861    47.6829 </r>
       <r>     4.0069    30.5049    48.6861 </r>
       <r>     4.0397    32.2609    49.7470 </r>
       <r>     4.0726    33.1168    50.8361 </r>
       <r>     4.1055    32.8450    51.9163 </r>
       <r>     4.1384    32.0323    52.9697 </r>
       <r>     4.1713    31.5823    54.0084 </r>
       <r>     4.2042    31.6433    55.0490 </r>
       <r>     4.2371    31.4976    56.0849 </r>
       <r>     4.2700    30.7493    57.0961 </r>
       <r>     4.3028    30.1919    58.0890 </r>
       <r>     4.3357    31.0093    59.1088 </r>
       <r>     4.3686    33.2329    60.2017 </r>
       <r>     4.4015    35.4326    61.3670 </r>
       <r>     4.4344    36.0342    62.5520 </r>
       <r>     4.4673    34.7130    63.6936 </r>
       <r>     4.5002    32.4441    64.7606 </r>
       <r>     4.5330    30.4606    65.7623 </r>
       <r>     4.5659    29.3696    66.7282 </r>
       <r>     4.5988    29.0487    67.6835 </r>
       <r>     4.6317    28.9979    68.6372 </r>
       <r>     4.6646    28.7862    69.5838 </r>
       <r>     4.6975    28.4141    70.5183 </r>
       <r>     4.7304    28.2497    71.4473 </r>
       <r>     4.7633    28.4911    72.3843 </r>
       <r>     4.7961    28.8664    73.3336 </r>
       <r>     4.8290    29.1081    74.2909 </r>
       <r>     4.8619    29.5564    75.2629 </r>
       <r>     4.8948    30.8844    76.2786 </r>
       <r>     4.9277    33.1168    77.3677 </r>
       <r>     4.9606    35.1687    78.5243 </r>
       <r>     4.9935    35.5830    79.6945 </r>
       <r>     5.0263    33.7855    80.8056 </r>
       <r>     5.0592    30.6184    81.8125 </r>
       <r>     5.0921    27.6793    82.7228 </r>
       <r>     5.1250    26.1599    83.5831 </r>
       <r>     5.1579    26.1910    84.4444 </r>
       <r>     5.1908    27.0009    85.3324 </r>
       <r>     5.2237    27.4991    86.2367 </r>
       <r>     5.2566    26.9212    87.1221 </r>
       <r>     5.2894    25.3743    87.9566 </r>
       <r>     5.3223    23.9380    88.7438 </r>
       <r>     5.3552    23.9498    89.5314 </r>
       <r>     5.3881    25.8396    90.3812 </r>
       <r>     5.4210    28.6062    91.3220 </r>
       <r>     5.4539    30.5654    92.3272 </r>
       <r>     5.4868    30.6765    93.3360 </r>
       <r>     5.5196    29.2017    94.2964 </r>
       <r>     5.5525    27.2827    95.1936 </r>
       <r>     5.5854    26.0124    96.0490 </r>
       <r>     5.6183    25.7418    96.8956 </r>
       <r>     5.6512    25.9876    97.7503 </r>
       <r>     5.6841    25.9163    98.6026 </r>
       <r>     5.7170    25.0425    99.4261 </r>
       <r>     5.7499    23.6456   100.2037 </r>
       <r>     5.7827    22.6133   100.9474 </r>
       <r>     5.8156    22.8367   101.6984 </r>
       <r>     5.8485    24.5720   102.5065 </r>
       <r>     5.8814    27.2416   103.4024 </r>
       <r>     5.9143    29.8624   104.3845 </r>
       <r>     5.9472    31.6538   105.4255 </r>
       <r>     5.9801    32.1374   106.4824 </r>
       <r>     6.0129    30.8535   107.4970 </r>
       <r>     6.0458    27.5413   108.4028 </r>
       <r>     6.0787    22.8743   109.1550 </r>
       <r>     6.1116    18.6902   109.7697 </r>
       <r>     6.1445    17.0442   110.3302 </r>
       <r>     6.1774    18.7926   110.9482 </r>
       <r>     6.2103    22.8860   111.7009 </r>
       <r>     6.2432    26.9060   112.5857 </r>
       <r>     6.2760    28.5376   113.5242 </r>
       <r>     6.3089    27.0408   114.4135 </r>
       <r>     6.3418    23.6877   115.1925 </r>
       <r>     6.3747    20.8750   115.8790 </r>
       <r>     6.4076    20.5891   116.5561 </r>
       <r>     6.4405    23.2216   117.3198 </r>
       <r>     6.4734    27.4210   118.2216 </r>
       <r>     6.5062    31.0368   119.2423 </r>
       <r>     6.5391    32.4873   120.3107 </r>
       <r>     6.5720    31.5862   121.3495 </r>
       <r>     6.6049    29.4022   122.3164 </r>
       <r>     6.6378    27.4683   123.2197 </r>
       <r>     6.6707    26.8663   124.1033 </r>
       <r>     6.7036    27.6206   125.0116 </r>
       <r>     6.7365    28.7781   125.9580 </r>
       <r>     6.7693    29.2198   126.9190 </r>
       <r>     6.8022    28.5795   127.8589 </r>
       <r>     6.8351    27.4124   128.7604 </r>
       <r>     6.8680    26.5117   129.6323 </r>
       <r>     6.9009    26.1940   130.4937 </r>
       <r>     6.9338    26.2234   131.3561 </r>
       <r>     6.9667    26.1554   132.2162 </r>
       <r>     6.9995    25.5520   133.0566 </r>
       <r>     7.0324    23.9793   133.8452 </r>
       <r>     7.0653    21.0985   134.5390 </r>
       <r>     7.0982    16.9650   135.0969 </r>
       <r>     7.1311    12.2013   135.4982 </r>
       <r>     7.1640     7.7297   135.7524 </r>
       <r>     7.1969     4.2677   135.8928 </r>
       <r>     7.2298     2.0353   135.9597 </r>
       <r>     7.2626     0.8306   135.9870 </r>
       <r>     7.2955     0.2871   135.9965 </r>
       <r>     7.3284     0.0832   135.9992 </r>
       <r>     7.3613     0.0200   135.9998 </r>
       <r>     7.3942     0.0040   136.0000 </r>
       <r>     7.4271     0.0006   136.0000 </r>
       <r>     7.4600     0.0001   136.0000 </r>
       <r>     7.4928     0.0000   136.0000 </r>
       <r>     7.5257     0.0000   136.0000 </r>
       <r>     7.5586     0.0000   136.0000 </r>
       <r>     7.5915     0.0000   136.0000 </r>
       <r>     7.6244     0.0000   136.0000 </r>
       <r>     7.6573     0.0000   136.0000 </r>
       <r>     7.6902     0.0000   136.0000 </r>
       <r>     7.7231     0.0000   136.0000 </r>
       <r>     7.7559     0.0000   136.0000 </r>
       <r>     7.7888     0.0000   136.0000 </r>
       <r>     7.8217     0.0000   136.0000 </r>
       <r>     7.8546     0.0000   136.0000 </r>
       <r>     7.8875     0.0000   136.0000 </r>
       <r>     7.9204     0.0000   136.0000 </r>
       <r>     7.9533     0.0000   136.0000 </r>
       <r>     7.9861     0.0000   136.0000 </r>
       <r>     8.0190     0.0000   136.0000 </r>
       <r>     8.0519     0.0000   136.0000 </r>
       <r>     8.0848     0.0000   136.0000 </r>
       <r>     8.1177     0.0000   136.0000 </r>
      </set>
     </set>
    </array>
   </total>
  </dos>
 </calculation>
 <structure name="finalpos" >
  <crystal>
   <varray name="basis" >
    <v>       8.22228358      -0.00000001      -0.00000000 </v>
    <v>      -4.11114131       7.12070624       0.00000000 </v>
    <v>      -0.00000000       0.00000000       4.62558215 </v>
   </varray>
   <i name="volume">    270.82073914 </i>
   <varray name="rec_basis" >
    <v>       0.12162071       0.07021775       0.00000000 </v>
    <v>       0.00000000       0.14043551      -0.00000000 </v>
    <v>       0.00000000      -0.00000000       0.21618900 </v>
   </varray>
  </crystal>
  <varray name="positions" >
   <v>       0.07611273       0.53805631       0.24484879 </v>
   <v>       0.46194369       0.53805642       0.24484879 </v>
   <v>       0.46194358      -0.07611273       0.24484879 </v>
   <v>       0.07611273       0.53805642       0.75515121 </v>
   <v>       0.46194358       0.53805631       0.75515121 </v>
   <v>       0.46194369      -0.07611273       0.75515121 </v>
   <v>       0.15378318       0.84621682       0.00000000 </v>
   <v>       0.15378318       0.30756636       0.00000000 </v>
   <v>       0.69243364       0.84621682       0.00000000 </v>
   <v>       0.11770256       0.88229744       0.50000000 </v>
   <v>       0.11770256       0.23540512       0.50000000 </v>
   <v>       0.76459488       0.88229744       0.50000000 </v>
   <v>       0.66666700       0.33333300       0.50000000 </v>
   <v>       0.77160054       0.22839946       0.00000000 </v>
   <v>       0.77160054       0.54320109       0.00000000 </v>
   <v>       0.45679891       0.22839946       0.00000000 </v>
   <v>       0.00000000       0.00000000       0.00000000 </v>
   <v>       0.82416813       0.17583187       0.50000000 </v>
   <v>       0.82416813       0.64833526       0.50000000 </v>
   <v>       0.35166474       0.17583187       0.50000000 </v>
  </varray>
 </structure>
</modeling>
