unknown system                          
           1
     8.295653    0.000000    0.000000
    -4.147826    7.184246    0.000000
     0.000000    0.000000    4.346991
   V    Fe
  17   3
Direct configuration=     1
   0.98577500  0.43717800  0.21881900
   0.56282200  0.54859700  0.21881900
   0.45140300  0.01422500  0.21881900
   0.98577500  0.54859700  0.78118100
   0.45140300  0.43717800  0.78118100
   0.56282200  0.01422500  0.78118100
   0.17890100  0.82109900  0.00000000
   0.17890100  0.35780200  0.00000000
   0.64219800  0.82109900  0.00000000
   0.10465200  0.89534800  0.50000000
   0.10465200  0.20930400  0.50000000
   0.79069600  0.89534800  0.50000000
   0.66666700  0.33333300  0.50000000
   0.82931000  0.17069000  0.00000000
   0.82931000  0.65862000  0.00000000
   0.34138000  0.17069000  0.00000000
   0.00000000  0.00000000  0.00000000
   0.82070400  0.17929600  0.50000000
   0.82070400  0.64140700  0.50000000
   0.35859300  0.17929600  0.50000000
unknown system                          
           1
     9.263552    0.000000   -0.000000
    -4.631775    8.022471    0.000000
    -0.000000    0.000000    4.911274
   V    Fe
  17   3
Direct configuration=     2
   0.99792904  0.46102838  0.24022350
   0.53897162  0.53690066  0.24022350
   0.46309934  0.00207096  0.24022350
   0.99792904  0.53690066  0.75977650
   0.46309934  0.46102838  0.75977650
   0.53897162  0.00207096  0.75977650
   0.18461623  0.81538377 -0.00000000
   0.18461623  0.36923247 -0.00000000
   0.63076753  0.81538377 -0.00000000
   0.10797021  0.89202979  0.50000000
   0.10797021  0.21594043  0.50000000
   0.78405957  0.89202979  0.50000000
   0.66666700  0.33333300  0.50000000
   0.82697200  0.17302800 -0.00000000
   0.82697200  0.65394400 -0.00000000
   0.34605600  0.17302800 -0.00000000
  -0.00000000  0.00000000 -0.00000000
   0.82121255  0.17878745  0.50000000
   0.82121255  0.64242410  0.50000000
   0.35757590  0.17878745  0.50000000
unknown system                          
           1
     8.758216    0.000000   -0.000000
    -4.379107    7.584837    0.000000
    -0.000000    0.000000    4.616664
   V    Fe
  17   3
Direct configuration=     3
   0.99224648  0.44987726  0.23033227
   0.55012274  0.54236922  0.23033227
   0.45763078  0.00775352  0.23033227
   0.99224648  0.54236922  0.76966773
   0.45763078  0.44987726  0.76966773
   0.55012274  0.00775352  0.76966773
   0.18194410  0.81805590 -0.00000000
   0.18194410  0.36388821 -0.00000000
   0.63611179  0.81805590 -0.00000000
   0.10641880  0.89358120  0.50000000
   0.10641880  0.21283760  0.50000000
   0.78716240  0.89358120  0.50000000
   0.66666700  0.33333300  0.50000000
   0.82806512  0.17193488 -0.00000000
   0.82806512  0.65613024 -0.00000000
   0.34386976  0.17193488 -0.00000000
  -0.00000000  0.00000000 -0.00000000
   0.82097478  0.17902522  0.50000000
   0.82097478  0.64194856  0.50000000
   0.35805144  0.17902522  0.50000000
unknown system                          
           1
     8.735018    0.000000   -0.000000
    -4.367508    7.564747    0.000000
    -0.000000    0.000000    4.603140
   V    Fe
  17   3
Direct configuration=     4
   0.99197057  0.44933582  0.22984924
   0.55066418  0.54263474  0.22984924
   0.45736526  0.00802943  0.22984924
   0.99197057  0.54263475  0.77015076
   0.45736526  0.44933582  0.77015076
   0.55066418  0.00802943  0.77015076
   0.18181436  0.81818564 -0.00000000
   0.18181436  0.36362872 -0.00000000
   0.63637128  0.81818564 -0.00000000
   0.10634347  0.89365653  0.50000000
   0.10634347  0.21268694  0.50000000
   0.78731306  0.89365653  0.50000000
   0.66666700  0.33333300  0.50000000
   0.82811820  0.17188180 -0.00000000
   0.82811820  0.65623639 -0.00000000
   0.34376361  0.17188180 -0.00000000
  -0.00000000  0.00000000 -0.00000000
   0.82096323  0.17903677  0.50000000
   0.82096323  0.64192547  0.50000000
   0.35807453  0.17903677  0.50000000
unknown system                          
           1
     8.634173    0.000000   -0.000000
    -4.317086    7.477413    0.000000
    -0.000000    0.000000    4.606403
   V    Fe
  17   3
Direct configuration=     5
   0.99628123  0.46140714  0.24141041
   0.53859286  0.53487409  0.24141041
   0.46512591  0.00371877  0.24141041
   0.99628123  0.53487409  0.75858959
   0.46512591  0.46140714  0.75858959
   0.53859286  0.00371877  0.75858959
   0.18309205  0.81690795  0.00000000
   0.18309205  0.36618410  0.00000000
   0.63381590  0.81690795  0.00000000
   0.10711981  0.89288019  0.50000000
   0.10711981  0.21423962  0.50000000
   0.78576038  0.89288019  0.50000000
   0.66666700  0.33333300  0.50000000
   0.82741364  0.17258636  0.00000000
   0.82741364  0.65482729  0.00000000
   0.34517271  0.17258636  0.00000000
  -0.00000000 -0.00000000  0.00000000
   0.82079671  0.17920329  0.50000000
   0.82079671  0.64159243  0.50000000
   0.35840757  0.17920329  0.50000000
unknown system                          
           1
     8.438804    0.000000   -0.000000
    -4.219402    7.308219    0.000000
    -0.000000    0.000000    4.612725
   V    Fe
  17   3
Direct configuration=     6
   0.00472985  0.48506616  0.26379211
   0.51493384  0.51966369  0.26379211
   0.48033631 -0.00472985  0.26379211
   0.00472985  0.51966369  0.73620789
   0.48033631  0.48506616  0.73620789
   0.51493384 -0.00472985  0.73620789
   0.18559625  0.81440375  0.00000000
   0.18559625  0.37119249  0.00000000
   0.62880751  0.81440375  0.00000000
   0.10864138  0.89135862  0.50000000
   0.10864138  0.21728276  0.50000000
   0.78271724  0.89135862  0.50000000
   0.66666700  0.33333300  0.50000000
   0.82603277  0.17396723  0.00000000
   0.82603277  0.65206553  0.00000000
   0.34793447  0.17396723  0.00000000
  -0.00000000 -0.00000000  0.00000000
   0.82047034  0.17952966  0.50000000
   0.82047034  0.64093968  0.50000000
   0.35906032  0.17952966  0.50000000
unknown system                          
           1
     8.377120   -0.000000   -0.000000
    -4.188559    7.254798    0.000000
    -0.000000    0.000000    4.614721
   V    Fe
  17   3
Direct configuration=     7
   0.00745914  0.49270910  0.27084913
   0.50729090  0.51475005  0.27084913
   0.48524995 -0.00745914  0.27084913
   0.00745914  0.51475005  0.72915087
   0.48524995  0.49270910  0.72915087
   0.50729090 -0.00745914  0.72915087
   0.18640521  0.81359479  0.00000000
   0.18640521  0.37281043  0.00000000
   0.62718957  0.81359479  0.00000000
   0.10913292  0.89086708  0.50000000
   0.10913292  0.21826584  0.50000000
   0.78173416  0.89086708  0.50000000
   0.66666700  0.33333300  0.50000000
   0.82558668  0.17441332  0.00000000
   0.82558668  0.65117336  0.00000000
   0.34882664  0.17441332  0.00000000
  -0.00000000 -0.00000000  0.00000000
   0.82036491  0.17963509  0.50000000
   0.82036491  0.64072881  0.50000000
   0.35927119  0.17963509  0.50000000
unknown system                          
           1
     8.397726    0.000000   -0.000000
    -4.198863    7.272644    0.000000
    -0.000000    0.000000    4.680282
   V    Fe
  17   3
Direct configuration=     8
   0.01860305  0.51061472  0.26528644
   0.48938528  0.50798833  0.26528644
   0.49201167 -0.01860305  0.26528644
   0.01860305  0.50798833  0.73471356
   0.49201167  0.51061472  0.73471356
   0.48938528 -0.01860305  0.73471356
   0.18911278  0.81088722  0.00000000
   0.18911278  0.37822555  0.00000000
   0.62177445  0.81088722  0.00000000
   0.11212012  0.88787988  0.50000000
   0.11212012  0.22424025  0.50000000
   0.77575975  0.88787988  0.50000000
   0.66666700  0.33333300  0.50000000
   0.82539087  0.17460912  0.00000000
   0.82539087  0.65078175  0.00000000
   0.34921825  0.17460913  0.00000000
  -0.00000000 -0.00000000  0.00000000
   0.81617675  0.18382325  0.50000000
   0.81617675  0.63235250  0.50000000
   0.36764750  0.18382325  0.50000000
unknown system                          
           1
     8.401271    0.000000   -0.000000
    -4.200635    7.275714    0.000000
    -0.000000    0.000000    4.691558
   V    Fe
  17   3
Direct configuration=     9
   0.02051506  0.51368686  0.26434308
   0.48631314  0.50682819  0.26434308
   0.49317181 -0.02051506  0.26434308
   0.02051506  0.50682819  0.73565692
   0.49317181  0.51368686  0.73565692
   0.48631314 -0.02051506  0.73565692
   0.18957733  0.81042267  0.00000000
   0.18957733  0.37915465  0.00000000
   0.62084535  0.81042267  0.00000000
   0.11263265  0.88736735  0.50000000
   0.11263265  0.22526530  0.50000000
   0.77473470  0.88736735  0.50000000
   0.66666700  0.33333300  0.50000000
   0.82535728  0.17464272  0.00000000
   0.82535728  0.65071456  0.00000000
   0.34928544  0.17464272  0.00000000
  -0.00000000 -0.00000000  0.00000000
   0.81545817  0.18454183  0.50000000
   0.81545817  0.63091534  0.50000000
   0.36908466  0.18454183  0.50000000
unknown system                          
           1
     8.223981   -0.000000   -0.000000
    -4.111990    7.122177    0.000000
    -0.000000    0.000000    4.613563
   V    Fe
  17   3
Direct configuration=    10
   0.02792858  0.52222908  0.25016440
   0.47777092  0.50569950  0.25016440
   0.49430050 -0.02792858  0.25016440
   0.02792858  0.50569950  0.74983560
   0.49430050  0.52222908  0.74983560
   0.47777092 -0.02792858  0.74983560
   0.19101879  0.80898121  0.00000000
   0.19101879  0.38203757  0.00000000
   0.61796243  0.80898121  0.00000000
   0.11458362  0.88541638  0.50000000
   0.11458362  0.22916725  0.50000000
   0.77083275  0.88541638  0.50000000
   0.66666700  0.33333300  0.50000000
   0.82501340  0.17498660  0.00000000
   0.82501340  0.65002679  0.00000000
   0.34997321  0.17498660  0.00000000
  -0.00000000 -0.00000000  0.00000000
   0.81249306  0.18750694  0.50000000
   0.81249306  0.62498511  0.50000000
   0.37501489  0.18750694  0.50000000
unknown system                          
           1
     8.321423   -0.000000   -0.000000
    -4.160711    7.206564    0.000000
    -0.000000    0.000000    4.656431
   V    Fe
  17   3
Direct configuration=    11
   0.02376611  0.51743289  0.25808904
   0.48256711  0.50633323  0.25808904
   0.49366677 -0.02376611  0.25808904
   0.02376611  0.50633323  0.74191096
   0.49366677  0.51743289  0.74191096
   0.48256711 -0.02376611  0.74191096
   0.19020945  0.80979055  0.00000000
   0.19020945  0.38041890  0.00000000
   0.61958110  0.80979055  0.00000000
   0.11348821  0.88651179  0.50000000
   0.11348821  0.22697643  0.50000000
   0.77302357  0.88651179  0.50000000
   0.66666700  0.33333300  0.50000000
   0.82520648  0.17479352  0.00000000
   0.82520648  0.65041295  0.00000000
   0.34958705  0.17479352  0.00000000
  -0.00000000 -0.00000000  0.00000000
   0.81415788  0.18584212  0.50000000
   0.81415788  0.62831475  0.50000000
   0.37168525  0.18584212  0.50000000
unknown system                          
           1
     8.334202   -0.000000   -0.000000
    -4.167101    7.217631    0.000000
    -0.000000    0.000000    4.666207
   V    Fe
  17   3
Direct configuration=    12
   0.02505105  0.51578837  0.25292778
   0.48421163  0.50926267  0.25292778
   0.49073733 -0.02505105  0.25292778
   0.02505105  0.50926267  0.74707222
   0.49073733  0.51578837  0.74707222
   0.48421163 -0.02505105  0.74707222
   0.19020625  0.80979375  0.00000000
   0.19020625  0.38041250  0.00000000
   0.61958750  0.80979375  0.00000000
   0.11371444  0.88628556  0.50000000
   0.11371444  0.22742889  0.50000000
   0.77257111  0.88628556  0.50000000
   0.66666700  0.33333300  0.50000000
   0.82457541  0.17542459  0.00000000
   0.82457541  0.64915082  0.00000000
   0.35084918  0.17542459  0.00000000
  -0.00000000 -0.00000000  0.00000000
   0.81469300  0.18530700  0.50000000
   0.81469300  0.62938499  0.50000000
   0.37061501  0.18530700  0.50000000
unknown system                          
           1
     8.338897   -0.000000   -0.000000
    -4.169448    7.221697    0.000000
    -0.000000    0.000000    4.669799
   V    Fe
  17   3
Direct configuration=    13
   0.02552238  0.51518514  0.25103561
   0.48481486  0.51033724  0.25103561
   0.48966276 -0.02552238  0.25103561
   0.02552238  0.51033724  0.74896439
   0.48966276  0.51518514  0.74896439
   0.48481486 -0.02552238  0.74896439
   0.19020508  0.80979492  0.00000000
   0.19020508  0.38041016  0.00000000
   0.61958984  0.80979492  0.00000000
   0.11379743  0.88620257  0.50000000
   0.11379743  0.22759486  0.50000000
   0.77240514  0.88620257  0.50000000
   0.66666700  0.33333300  0.50000000
   0.82434392  0.17565608  0.00000000
   0.82434392  0.64868784  0.00000000
   0.35131216  0.17565608  0.00000000
  -0.00000000 -0.00000000  0.00000000
   0.81488929  0.18511071  0.50000000
   0.81488929  0.62977757  0.50000000
   0.37022243  0.18511071  0.50000000
unknown system                          
           1
     8.313138   -0.000000   -0.000000
    -4.156568    7.199388    0.000000
    -0.000000    0.000000    4.653910
   V    Fe
  17   3
Direct configuration=    14
   0.02539730  0.51274243  0.25053911
   0.48725757  0.51265487  0.25053911
   0.48734513 -0.02539730  0.25053911
   0.02539730  0.51265487  0.74946089
   0.48734513  0.51274243  0.74946089
   0.48725757 -0.02539730  0.74946089
   0.18930699  0.81069301  0.00000000
   0.18930699  0.37861398  0.00000000
   0.62138602  0.81069301  0.00000000
   0.11374905  0.88625095  0.50000000
   0.11374905  0.22749809  0.50000000
   0.77250191  0.88625095  0.50000000
   0.66666700  0.33333300  0.50000000
   0.82353960  0.17646040  0.00000000
   0.82353960  0.64707919  0.00000000
   0.35292081  0.17646040  0.00000000
  -0.00000000 -0.00000000  0.00000000
   0.81556154  0.18443846  0.50000000
   0.81556154  0.63112207  0.50000000
   0.36887793  0.18443846  0.50000000
unknown system                          
           1
     8.316744   -0.000000   -0.000000
    -4.158371    7.202511    0.000000
    -0.000000    0.000000    4.656134
   V    Fe
  17   3
Direct configuration=    15
   0.02541486  0.51308546  0.25060886
   0.48691454  0.51232940  0.25060886
   0.48767060 -0.02541486  0.25060886
   0.02541486  0.51232940  0.74939114
   0.48767060  0.51308546  0.74939114
   0.48691454 -0.02541486  0.74939114
   0.18943311  0.81056689  0.00000000
   0.18943311  0.37886622  0.00000000
   0.62113378  0.81056689  0.00000000
   0.11375584  0.88624416  0.50000000
   0.11375584  0.22751168  0.50000000
   0.77248832  0.88624416  0.50000000
   0.66666700  0.33333300  0.50000000
   0.82365255  0.17634745  0.00000000
   0.82365255  0.64730509  0.00000000
   0.35269491  0.17634745  0.00000000
  -0.00000000 -0.00000000  0.00000000
   0.81546713  0.18453287  0.50000000
   0.81546713  0.63093326  0.50000000
   0.36906674  0.18453287  0.50000000
unknown system                          
           1
     8.336926   -0.000000   -0.000000
    -4.168463    7.219990    0.000000
    -0.000000    0.000000    4.664297
   V    Fe
  17   3
Direct configuration=    16
   0.02502715  0.51121767  0.25216517
   0.48878233  0.51380948  0.25216517
   0.48619052 -0.02502715  0.25216517
   0.02502715  0.51380948  0.74783483
   0.48619052  0.51121767  0.74783483
   0.48878233 -0.02502715  0.74783483
   0.18815615  0.81184385  0.00000000
   0.18815615  0.37631230  0.00000000
   0.62368770  0.81184385  0.00000000
   0.11356768  0.88643232  0.50000000
   0.11356768  0.22713537  0.50000000
   0.77286463  0.88643232  0.50000000
   0.66666700  0.33333300  0.50000000
   0.82266301  0.17733699  0.00000000
   0.82266301  0.64532602  0.00000000
   0.35467398  0.17733699  0.00000000
  -0.00000000 -0.00000000  0.00000000
   0.81587967  0.18412033  0.50000000
   0.81587967  0.63175835  0.50000000
   0.36824165  0.18412033  0.50000000
unknown system                          
           1
     8.332288   -0.000000   -0.000000
    -4.166144    7.215973    0.000000
    -0.000000    0.000000    4.662421
   V    Fe
  17   3
Direct configuration=    17
   0.02511603  0.51164585  0.25180815
   0.48835415  0.51347018  0.25180815
   0.48652982 -0.02511603  0.25180815
   0.02511603  0.51347018  0.74819185
   0.48652982  0.51164585  0.74819185
   0.48835415 -0.02511603  0.74819185
   0.18844889  0.81155111  0.00000000
   0.18844889  0.37689778  0.00000000
   0.62310222  0.81155111  0.00000000
   0.11361082  0.88638918  0.50000000
   0.11361082  0.22722164  0.50000000
   0.77277836  0.88638918  0.50000000
   0.66666700  0.33333300  0.50000000
   0.82288986  0.17711014  0.00000000
   0.82288986  0.64577971  0.00000000
   0.35422029  0.17711014  0.00000000
  -0.00000000 -0.00000000  0.00000000
   0.81578510  0.18421490  0.50000000
   0.81578510  0.63156920  0.50000000
   0.36843080  0.18421490  0.50000000
unknown system                          
           1
     8.333452   -0.000000   -0.000000
    -4.166726    7.216981    0.000000
    -0.000000    0.000000    4.659419
   V    Fe
  17   3
Direct configuration=    18
   0.02499554  0.51185629  0.25188844
   0.48814371  0.51313925  0.25188844
   0.48686075 -0.02499554  0.25188844
   0.02499554  0.51313925  0.74811156
   0.48686075  0.51185629  0.74811156
   0.48814371 -0.02499554  0.74811156
   0.18774157  0.81225843  0.00000000
   0.18774157  0.37548313  0.00000000
   0.62451687  0.81225843  0.00000000
   0.11345923  0.88654077  0.50000000
   0.11345923  0.22691846  0.50000000
   0.77308154  0.88654077  0.50000000
   0.66666700  0.33333300  0.50000000
   0.82244402  0.17755598  0.00000000
   0.82244402  0.64488805  0.00000000
   0.35511195  0.17755598  0.00000000
  -0.00000000 -0.00000000  0.00000000
   0.81551275  0.18448725  0.50000000
   0.81551275  0.63102449  0.50000000
   0.36897551  0.18448725  0.50000000
unknown system                          
           1
     8.336081   -0.000000   -0.000000
    -4.168040    7.219258    0.000000
    -0.000000    0.000000    4.652636
   V    Fe
  17   3
Direct configuration=    19
   0.02472339  0.51233161  0.25206994
   0.48766839  0.51239179  0.25206994
   0.48760821 -0.02472339  0.25206994
   0.02472339  0.51239179  0.74793006
   0.48760821  0.51233161  0.74793006
   0.48766839 -0.02472339  0.74793006
   0.18614395  0.81385605  0.00000000
   0.18614395  0.37228790  0.00000000
   0.62771210  0.81385605  0.00000000
   0.11311683  0.88688317  0.50000000
   0.11311683  0.22623367  0.50000000
   0.77376633  0.88688317  0.50000000
   0.66666700  0.33333300  0.50000000
   0.82143702  0.17856298  0.00000000
   0.82143702  0.64287405  0.00000000
   0.35712595  0.17856298  0.00000000
  -0.00000000 -0.00000000  0.00000000
   0.81489758  0.18510242  0.50000000
   0.81489758  0.62979416  0.50000000
   0.37020584  0.18510242  0.50000000
unknown system                          
           1
     8.344978   -0.000000   -0.000000
    -4.172489    7.226963    0.000000
    -0.000000    0.000000    4.650311
   V    Fe
  17   3
Direct configuration=    20
   0.02494819  0.51265281  0.25141975
   0.48734719  0.51229538  0.25141975
   0.48770462 -0.02494819  0.25141975
   0.02494819  0.51229538  0.74858025
   0.48770462  0.51265281  0.74858025
   0.48734719 -0.02494819  0.74858025
   0.18548842  0.81451158  0.00000000
   0.18548842  0.37097685  0.00000000
   0.62902315  0.81451158  0.00000000
   0.11309267  0.88690733  0.50000000
   0.11309267  0.22618534  0.50000000
   0.77381466  0.88690733  0.50000000
   0.66666700  0.33333300  0.50000000
   0.82107227  0.17892773  0.00000000
   0.82107227  0.64214454  0.00000000
   0.35785546  0.17892773  0.00000000
  -0.00000000 -0.00000000  0.00000000
   0.81496349  0.18503651  0.50000000
   0.81496349  0.62992597  0.50000000
   0.37007403  0.18503651  0.50000000
unknown system                          
           1
     8.363595   -0.000000   -0.000000
    -4.181797    7.243085    0.000000
    -0.000000    0.000000    4.645447
   V    Fe
  17   3
Direct configuration=    21
   0.02541807  0.51332420  0.25005857
   0.48667580  0.51209387  0.25005857
   0.48790613 -0.02541807  0.25005857
   0.02541807  0.51209387  0.74994143
   0.48790613  0.51332420  0.74994143
   0.48667580 -0.02541807  0.74994143
   0.18411823  0.81588177  0.00000000
   0.18411823  0.36823646  0.00000000
   0.63176354  0.81588177  0.00000000
   0.11304216  0.88695784  0.50000000
   0.11304216  0.22608431  0.50000000
   0.77391569  0.88695784  0.50000000
   0.66666700  0.33333300  0.50000000
   0.82030985  0.17969015  0.00000000
   0.82030985  0.64061971  0.00000000
   0.35938029  0.17969015  0.00000000
  -0.00000000 -0.00000000  0.00000000
   0.81510124  0.18489876  0.50000000
   0.81510124  0.63020149  0.50000000
   0.36979851  0.18489876  0.50000000
unknown system                          
           1
     8.362660   -0.000000   -0.000000
    -4.181329    7.242275    0.000000
    -0.000000    0.000000    4.639080
   V    Fe
  17   3
Direct configuration=    22
   0.02561111  0.51344613  0.24953171
   0.48655387  0.51216498  0.24953171
   0.48783502 -0.02561111  0.24953171
   0.02561111  0.51216498  0.75046829
   0.48783502  0.51344613  0.75046829
   0.48655387 -0.02561111  0.75046829
   0.18353786  0.81646214  0.00000000
   0.18353786  0.36707571  0.00000000
   0.63292429  0.81646214  0.00000000
   0.11304568  0.88695432  0.50000000
   0.11304568  0.22609135  0.50000000
   0.77390865  0.88695432  0.50000000
   0.66666700  0.33333300  0.50000000
   0.82003768  0.17996232  0.00000000
   0.82003768  0.64007536  0.00000000
   0.35992464  0.17996232  0.00000000
  -0.00000000 -0.00000000  0.00000000
   0.81522931  0.18477069  0.50000000
   0.81522931  0.63045762  0.50000000
   0.36954238  0.18477069  0.50000000
unknown system                          
           1
     8.361727   -0.000000   -0.000000
    -4.180863    7.241468    0.000000
    -0.000000    0.000000    4.632726
   V    Fe
  17   3
Direct configuration=    23
   0.02580375  0.51356782  0.24900529
   0.48643218  0.51223594  0.24900529
   0.48776406 -0.02580375  0.24900529
   0.02580375  0.51223594  0.75099471
   0.48776406  0.51356782  0.75099471
   0.48643218 -0.02580375  0.75099471
   0.18295870  0.81704130  0.00000000
   0.18295870  0.36591740  0.00000000
   0.63408260  0.81704130  0.00000000
   0.11304919  0.88695081  0.50000000
   0.11304919  0.22609838  0.50000000
   0.77390162  0.88695081  0.50000000
   0.66666700  0.33333300  0.50000000
   0.81976607  0.18023393  0.00000000
   0.81976607  0.63953215  0.00000000
   0.36046785  0.18023393  0.00000000
  -0.00000000 -0.00000000  0.00000000
   0.81535711  0.18464289  0.50000000
   0.81535711  0.63071322  0.50000000
   0.36928678  0.18464289  0.50000000
unknown system                          
           1
     8.359861   -0.000000   -0.000000
    -4.179930    7.239852    0.000000
    -0.000000    0.000000    4.620018
   V    Fe
  17   3
Direct configuration=    24
   0.02618907  0.51381121  0.24795100
   0.48618879  0.51237786  0.24795100
   0.48762214 -0.02618907  0.24795100
   0.02618907  0.51237786  0.75204900
   0.48762214  0.51381121  0.75204900
   0.48618879 -0.02618907  0.75204900
   0.18180025  0.81819975  0.00000000
   0.18180025  0.36360051  0.00000000
   0.63639949  0.81819975  0.00000000
   0.11305622  0.88694378  0.50000000
   0.11305622  0.22611243  0.50000000
   0.77388757  0.88694378  0.50000000
   0.66666700  0.33333300  0.50000000
   0.81922280  0.18077720  0.00000000
   0.81922280  0.63844561  0.00000000
   0.36155439  0.18077720  0.00000000
  -0.00000000 -0.00000000  0.00000000
   0.81561274  0.18438726  0.50000000
   0.81561274  0.63122447  0.50000000
   0.36877553  0.18438726  0.50000000
unknown system                          
           1
     8.361496   -0.000000   -0.000000
    -4.180747    7.241267    0.000000
    -0.000000    0.000000    4.617740
   V    Fe
  17   3
Direct configuration=    25
   0.02630537  0.51384891  0.24770637
   0.48615108  0.51245645  0.24770637
   0.48754355 -0.02630537  0.24770637
   0.02630537  0.51245646  0.75229363
   0.48754355  0.51384891  0.75229363
   0.48615108 -0.02630537  0.75229363
   0.18143101  0.81856899  0.00000000
   0.18143101  0.36286202  0.00000000
   0.63713798  0.81856899  0.00000000
   0.11305904  0.88694096  0.50000000
   0.11305904  0.22611807  0.50000000
   0.77388193  0.88694096  0.50000000
   0.66666700  0.33333300  0.50000000
   0.81904765  0.18095235  0.00000000
   0.81904765  0.63809531  0.00000000
   0.36190469  0.18095235  0.00000000
  -0.00000000 -0.00000000  0.00000000
   0.81568110  0.18431890  0.50000000
   0.81568110  0.63136120  0.50000000
   0.36863880  0.18431890  0.50000000
unknown system                          
           1
     8.366399   -0.000000   -0.000000
    -4.183199    7.245514    0.000000
    -0.000000    0.000000    4.610907
   V    Fe
  17   3
Direct configuration=    26
   0.02665421  0.51396202  0.24697212
   0.48603798  0.51269219  0.24697212
   0.48730781 -0.02665421  0.24697212
   0.02665421  0.51269219  0.75302788
   0.48730781  0.51396202  0.75302788
   0.48603798 -0.02665421  0.75302788
   0.18032350  0.81967650  0.00000000
   0.18032350  0.36064700  0.00000000
   0.63935300  0.81967650  0.00000000
   0.11306749  0.88693251  0.50000000
   0.11306749  0.22613499  0.50000000
   0.77386501  0.88693251  0.50000000
   0.66666700  0.33333300  0.50000000
   0.81852231  0.18147769  0.00000000
   0.81852231  0.63704462  0.00000000
   0.36295538  0.18147769  0.00000000
  -0.00000000 -0.00000000  0.00000000
   0.81588616  0.18411384  0.50000000
   0.81588616  0.63177132  0.50000000
   0.36822868  0.18411384  0.50000000
unknown system                          
           1
     8.376205   -0.000000   -0.000000
    -4.188102    7.254006    0.000000
    -0.000000    0.000000    4.597240
   V    Fe
  17   3
Direct configuration=    27
   0.02735147  0.51418811  0.24550145
   0.48581189  0.51316337  0.24550145
   0.48683663 -0.02735147  0.24550145
   0.02735147  0.51316337  0.75449855
   0.48683663  0.51418811  0.75449855
   0.48581189 -0.02735147  0.75449855
   0.17810978  0.82189022  0.00000000
   0.17810978  0.35621956  0.00000000
   0.64378044  0.82189022  0.00000000
   0.11308440  0.88691560  0.50000000
   0.11308440  0.22616880  0.50000000
   0.77383120  0.88691560  0.50000000
   0.66666700  0.33333300  0.50000000
   0.81747224  0.18252776  0.00000000
   0.81747224  0.63494448  0.00000000
   0.36505552  0.18252776  0.00000000
  -0.00000000 -0.00000000  0.00000000
   0.81629604  0.18370396  0.50000000
   0.81629604  0.63259107  0.50000000
   0.36740893  0.18370396  0.50000000
unknown system                          
           1
     8.395817   -0.000000   -0.000000
    -4.197908    7.270991    0.000000
    -0.000000    0.000000    4.569906
   V    Fe
  17   3
Direct configuration=    28
   0.02874438  0.51463974  0.24255135
   0.48536026  0.51410463  0.24255135
   0.48589537 -0.02874438  0.24255135
   0.02874438  0.51410463  0.75744865
   0.48589537  0.51463974  0.75744865
   0.48536026 -0.02874438  0.75744865
   0.17368752  0.82631248  0.00000000
   0.17368752  0.34737505  0.00000000
   0.65262495  0.82631248  0.00000000
   0.11311817  0.88688183  0.50000000
   0.11311817  0.22623635  0.50000000
   0.77376365  0.88688183  0.50000000
   0.66666700  0.33333300  0.50000000
   0.81537456  0.18462544  0.00000000
   0.81537456  0.63074912  0.00000000
   0.36925088  0.18462544  0.00000000
  -0.00000000 -0.00000000  0.00000000
   0.81711483  0.18288517  0.50000000
   0.81711483  0.63422866  0.50000000
   0.36577134  0.18288517  0.50000000
unknown system                          
           1
     8.435042    0.000000   -0.000000
    -4.217520    7.304960    0.000000
    -0.000000    0.000000    4.515238
   V    Fe
  17   3
Direct configuration=    29
   0.03152367  0.51554090  0.23661586
   0.48445910  0.51598277  0.23661586
   0.48401723 -0.03152367  0.23661586
   0.03152367  0.51598277  0.76338414
   0.48401723  0.51554090  0.76338414
   0.48445910 -0.03152367  0.76338414
   0.16486367  0.83513633  0.00000000
   0.16486367  0.32972734  0.00000000
   0.67027266  0.83513633  0.00000000
   0.11318556  0.88681444  0.50000000
   0.11318556  0.22637112  0.50000000
   0.77362888  0.88681444  0.50000000
   0.66666700  0.33333300  0.50000000
   0.81118900  0.18881100  0.00000000
   0.81118900  0.62237799  0.00000000
   0.37762201  0.18881100  0.00000000
  -0.00000000 -0.00000000  0.00000000
   0.81874859  0.18125141  0.50000000
   0.81874859  0.63749619  0.50000000
   0.36250381  0.18125141  0.50000000
unknown system                          
           1
     8.442951    0.000000   -0.000000
    -4.221475    7.311810    0.000000
    -0.000000    0.000000    4.504215
   V    Fe
  17   3
Direct configuration=    30
   0.03208147  0.51572176  0.23540457
   0.48427824  0.51635970  0.23540457
   0.48364030 -0.03208147  0.23540457
   0.03208147  0.51635970  0.76459543
   0.48364030  0.51572176  0.76459543
   0.48427824 -0.03208147  0.76459543
   0.16309274  0.83690726  0.00000000
   0.16309274  0.32618549  0.00000000
   0.67381451  0.83690726  0.00000000
   0.11319908  0.88680092  0.50000000
   0.11319908  0.22639817  0.50000000
   0.77360183  0.88680092  0.50000000
   0.66666700  0.33333300  0.50000000
   0.81034896  0.18965104  0.00000000
   0.81034896  0.62069793  0.00000000
   0.37930207  0.18965104  0.00000000
  -0.00000000 -0.00000000  0.00000000
   0.81907649  0.18092351  0.50000000
   0.81907649  0.63815197  0.50000000
   0.36184803  0.18092351  0.50000000
unknown system                          
           1
     8.438691    0.000000   -0.000000
    -4.219345    7.308121    0.000000
    -0.000000    0.000000    4.510152
   V    Fe
  17   3
Direct configuration=    31
   0.03178132  0.51562444  0.23605857
   0.48437556  0.51615687  0.23605857
   0.48384313 -0.03178132  0.23605857
   0.03178132  0.51615687  0.76394143
   0.48384313  0.51562444  0.76394143
   0.48437556 -0.03178132  0.76394143
   0.16404568  0.83595432  0.00000000
   0.16404568  0.32809136  0.00000000
   0.67190864  0.83595432  0.00000000
   0.11319181  0.88680819  0.50000000
   0.11319181  0.22638361  0.50000000
   0.77361639  0.88680819  0.50000000
   0.66666700  0.33333300  0.50000000