  20  20   0   0
  0.1259460E+02  0.6374399E-09  0.9710523E-09  0.4138048E-09  0.5000000E-15
  1.000000000000000E-004
  CAR 
 unknown system                          
      9.02670647     -1.41133179  301      6.54735060      1.00000000
     -1.411  0.0000E+00  0.0000E+00
     -1.377  0.0000E+00  0.0000E+00
     -1.342  0.0000E+00  0.0000E+00
     -1.307  0.0000E+00  0.0000E+00
     -1.272  0.0000E+00  0.0000E+00
     -1.237  0.0000E+00  0.0000E+00
     -1.203  0.0000E+00  0.0000E+00
     -1.168  0.0000E+00  0.0000E+00
     -1.133  0.0000E+00  0.0000E+00
     -1.098  0.0000E+00  0.0000E+00
     -1.063  0.0000E+00  0.0000E+00
     -1.029  0.0000E+00  0.0000E+00
     -0.994  0.1064E-17  0.3701E-19
     -0.959  0.4467E-16  0.1591E-17
     -0.924  0.1901E-14  0.6774E-16
     -0.889  0.6355E-13  0.2279E-14
     -0.855  0.1672E-11  0.6046E-13
     -0.820  0.3464E-10  0.1266E-11
     -0.785  0.5652E-09  0.2093E-10
     -0.750  0.7265E-08  0.2737E-09
     -0.715  0.7356E-07  0.2833E-08
     -0.681  0.5869E-06  0.2325E-07
     -0.646  0.3691E-05  0.1517E-06
     -0.611  0.1830E-04  0.7883E-06
     -0.576  0.7150E-04  0.3276E-05
     -0.541  0.2203E-03  0.1094E-04
     -0.507  0.5354E-03  0.2957E-04
     -0.472  0.1026E-02  0.6527E-04
     -0.437  0.1551E-02  0.1192E-03
     -0.402  0.1849E-02  0.1836E-03
     -0.368  0.1739E-02  0.2441E-03
     -0.333  0.1290E-02  0.2889E-03
     -0.298  0.7554E-03  0.3152E-03
     -0.263  0.3528E-03  0.3275E-03
     -0.228  0.1486E-03  0.3327E-03
     -0.194  0.1196E-03  0.3368E-03
     -0.159  0.2572E-03  0.3458E-03
     -0.124  0.5891E-03  0.3663E-03
     -0.089  0.1094E-02  0.4043E-03
     -0.054  0.1606E-02  0.4602E-03
     -0.020  0.1863E-02  0.5251E-03
      0.015  0.1719E-02  0.5849E-03
      0.050  0.1306E-02  0.6303E-03
      0.085  0.9434E-03  0.6631E-03
      0.120  0.8982E-03  0.6944E-03
      0.154  0.1203E-02  0.7362E-03
      0.189  0.1635E-02  0.7931E-03
      0.224  0.1865E-02  0.8580E-03
      0.259  0.1700E-02  0.9172E-03
      0.294  0.1226E-02  0.9598E-03
      0.328  0.7052E-03  0.9844E-03
      0.363  0.3531E-03  0.9966E-03
      0.398  0.2512E-03  0.1005E-02
      0.433  0.4125E-03  0.1020E-02
      0.468  0.8312E-03  0.1049E-02
      0.502  0.1445E-02  0.1099E-02
      0.537  0.2130E-02  0.1173E-02
      0.572  0.2836E-02  0.1272E-02
      0.607  0.3690E-02  0.1400E-02
      0.641  0.4795E-02  0.1567E-02
      0.676  0.5895E-02  0.1772E-02
      0.711  0.6447E-02  0.1996E-02
      0.746  0.6117E-02  0.2209E-02
      0.781  0.5092E-02  0.2386E-02
      0.815  0.3888E-02  0.2522E-02
      0.850  0.3035E-02  0.2627E-02
      0.885  0.2912E-02  0.2729E-02
      0.920  0.3586E-02  0.2853E-02
      0.955  0.4651E-02  0.3015E-02
      0.989  0.5354E-02  0.3201E-02
      1.024  0.5114E-02  0.3379E-02
      1.059  0.4000E-02  0.3519E-02
      1.094  0.2679E-02  0.3612E-02
      1.129  0.1939E-02  0.3679E-02
      1.163  0.2267E-02  0.3758E-02
      1.198  0.3661E-02  0.3885E-02
      1.233  0.5556E-02  0.4079E-02
      1.268  0.6975E-02  0.4321E-02
      1.303  0.7139E-02  0.4570E-02
      1.337  0.6139E-02  0.4783E-02
      1.372  0.4957E-02  0.4956E-02
      1.407  0.4684E-02  0.5119E-02
      1.442  0.5639E-02  0.5315E-02
      1.477  0.7153E-02  0.5564E-02
      1.511  0.8203E-02  0.5849E-02
      1.546  0.8283E-02  0.6138E-02
      1.581  0.7660E-02  0.6404E-02
      1.616  0.6908E-02  0.6644E-02
      1.650  0.6439E-02  0.6868E-02
      1.685  0.6411E-02  0.7091E-02
      1.720  0.6683E-02  0.7324E-02
      1.755  0.6830E-02  0.7562E-02
      1.790  0.6535E-02  0.7789E-02
      1.824  0.5992E-02  0.7998E-02
      1.859  0.5697E-02  0.8196E-02
      1.894  0.5926E-02  0.8402E-02
      1.929  0.6661E-02  0.8634E-02
      1.964  0.7774E-02  0.8904E-02
      1.998  0.8918E-02  0.9215E-02
      2.033  0.9403E-02  0.9542E-02
      2.068  0.8629E-02  0.9842E-02
      2.103  0.6742E-02  0.1008E-01
      2.138  0.4680E-02  0.1024E-01
      2.172  0.3565E-02  0.1036E-01
      2.207  0.4048E-02  0.1050E-01
      2.242  0.6005E-02  0.1071E-01
      2.277  0.8522E-02  0.1101E-01
      2.312  0.1024E-01  0.1137E-01
      2.346  0.1010E-01  0.1172E-01
      2.381  0.8134E-02  0.1200E-01
      2.416  0.5400E-02  0.1219E-01
      2.451  0.3251E-02  0.1230E-01
      2.486  0.2554E-02  0.1239E-01
      2.520  0.3490E-02  0.1251E-01
      2.555  0.5644E-02  0.1271E-01
      2.590  0.8115E-02  0.1299E-01
      2.625  0.9881E-02  0.1333E-01
      2.660  0.1044E-01  0.1370E-01
      2.694  0.1007E-01  0.1405E-01
      2.729  0.9392E-02  0.1437E-01
      2.764  0.8889E-02  0.1468E-01
      2.799  0.9085E-02  0.1500E-01
      2.833  0.1080E-01  0.1538E-01
      2.868  0.1463E-01  0.1588E-01
      2.903  0.2011E-01  0.1658E-01
      2.938  0.2560E-01  0.1748E-01
      2.973  0.2944E-01  0.1850E-01
      3.007  0.3115E-01  0.1958E-01
      3.042  0.3147E-01  0.2068E-01
      3.077  0.3139E-01  0.2177E-01
      3.112  0.3130E-01  0.2286E-01
      3.147  0.3095E-01  0.2394E-01
      3.181  0.3018E-01  0.2499E-01
      3.216  0.2940E-01  0.2601E-01
      3.251  0.2915E-01  0.2702E-01
      3.286  0.2963E-01  0.2805E-01
      3.321  0.3082E-01  0.2913E-01
      3.355  0.3298E-01  0.3027E-01
      3.390  0.3627E-01  0.3154E-01
      3.425  0.4007E-01  0.3293E-01
      3.460  0.4319E-01  0.3443E-01
      3.495  0.4495E-01  0.3600E-01
      3.529  0.4585E-01  0.3759E-01
      3.564  0.4694E-01  0.3923E-01
      3.599  0.4866E-01  0.4092E-01
      3.634  0.5063E-01  0.4268E-01
      3.669  0.5255E-01  0.4451E-01
      3.703  0.5480E-01  0.4642E-01
      3.738  0.5781E-01  0.4843E-01
      3.773  0.6129E-01  0.5056E-01
      3.808  0.6452E-01  0.5280E-01
      3.842  0.6711E-01  0.5514E-01
      3.877  0.6899E-01  0.5754E-01
      3.912  0.6990E-01  0.5997E-01
      3.947  0.6933E-01  0.6238E-01
      3.982  0.6714E-01  0.6472E-01
      4.016  0.6417E-01  0.6695E-01
      4.051  0.6170E-01  0.6910E-01
      4.086  0.6025E-01  0.7120E-01
      4.121  0.5872E-01  0.7324E-01
      4.156  0.5528E-01  0.7516E-01
      4.190  0.4930E-01  0.7688E-01
      4.225  0.4215E-01  0.7834E-01
      4.260  0.3617E-01  0.7960E-01
      4.295  0.3288E-01  0.8075E-01
      4.330  0.3208E-01  0.8186E-01
      4.364  0.3209E-01  0.8298E-01
      4.399  0.3115E-01  0.8406E-01
      4.434  0.2900E-01  0.8507E-01
      4.469  0.2727E-01  0.8602E-01
      4.504  0.2826E-01  0.8700E-01
      4.538  0.3297E-01  0.8815E-01
      4.573  0.4035E-01  0.8956E-01
      4.608  0.4810E-01  0.9123E-01
      4.643  0.5428E-01  0.9312E-01
      4.678  0.5824E-01  0.9514E-01
      4.712  0.6064E-01  0.9725E-01
      4.747  0.6254E-01  0.9943E-01
      4.782  0.6451E-01  0.1017E+00
      4.817  0.6641E-01  0.1040E+00
      4.851  0.6781E-01  0.1063E+00
      4.886  0.6852E-01  0.1087E+00
      4.921  0.6856E-01  0.1111E+00
      4.956  0.6789E-01  0.1135E+00
      4.991  0.6644E-01  0.1158E+00
      5.025  0.6448E-01  0.1180E+00
      5.060  0.6254E-01  0.1202E+00
      5.095  0.6100E-01  0.1223E+00
      5.130  0.5994E-01  0.1244E+00
      5.165  0.5951E-01  0.1265E+00
      5.199  0.6012E-01  0.1286E+00
      5.234  0.6221E-01  0.1307E+00
      5.269  0.6568E-01  0.1330E+00
      5.304  0.6964E-01  0.1354E+00
      5.339  0.7298E-01  0.1380E+00
      5.373  0.7513E-01  0.1406E+00
      5.408  0.7616E-01  0.1433E+00
      5.443  0.7616E-01  0.1459E+00
      5.478  0.7484E-01  0.1485E+00
      5.513  0.7207E-01  0.1510E+00
      5.547  0.6837E-01  0.1534E+00
      5.582  0.6480E-01  0.1556E+00
      5.617  0.6228E-01  0.1578E+00
      5.652  0.6146E-01  0.1600E+00
      5.687  0.6240E-01  0.1621E+00
      5.721  0.6421E-01  0.1644E+00
      5.756  0.6537E-01  0.1666E+00
      5.791  0.6490E-01  0.1689E+00
      5.826  0.6299E-01  0.1711E+00
      5.861  0.6068E-01  0.1732E+00
      5.895  0.5925E-01  0.1753E+00
      5.930  0.5977E-01  0.1773E+00
      5.965  0.6274E-01  0.1795E+00
      6.000  0.6777E-01  0.1819E+00
      6.034  0.7360E-01  0.1844E+00
      6.069  0.7858E-01  0.1872E+00
      6.104  0.8129E-01  0.1900E+00
      6.139  0.8128E-01  0.1928E+00
      6.174  0.7922E-01  0.1956E+00
      6.208  0.7621E-01  0.1982E+00
      6.243  0.7276E-01  0.2008E+00
      6.278  0.6882E-01  0.2032E+00
      6.313  0.6453E-01  0.2054E+00
      6.348  0.6057E-01  0.2075E+00
      6.382  0.5753E-01  0.2095E+00
      6.417  0.5537E-01  0.2114E+00
      6.452  0.5356E-01  0.2133E+00
      6.487  0.5153E-01  0.2151E+00
      6.522  0.4902E-01  0.2168E+00
      6.556  0.4600E-01  0.2184E+00
      6.591  0.4248E-01  0.2199E+00
      6.626  0.3843E-01  0.2212E+00
      6.661  0.3400E-01  0.2224E+00
      6.696  0.2940E-01  0.2234E+00
      6.730  0.2496E-01  0.2243E+00
      6.765  0.2128E-01  0.2250E+00
      6.800  0.1896E-01  0.2257E+00
      6.835  0.1817E-01  0.2263E+00
      6.870  0.1848E-01  0.2270E+00
      6.904  0.1944E-01  0.2276E+00
      6.939  0.2089E-01  0.2284E+00
      6.974  0.2300E-01  0.2292E+00
      7.009  0.2606E-01  0.2301E+00
      7.043  0.3020E-01  0.2311E+00
      7.078  0.3492E-01  0.2323E+00
      7.113  0.3924E-01  0.2337E+00
      7.148  0.4250E-01  0.2352E+00
      7.183  0.4476E-01  0.2367E+00
      7.217  0.4638E-01  0.2384E+00
      7.252  0.4766E-01  0.2400E+00
      7.287  0.4918E-01  0.2417E+00
      7.322  0.5186E-01  0.2435E+00
      7.357  0.5615E-01  0.2455E+00
      7.391  0.6123E-01  0.2476E+00
      7.426  0.6505E-01  0.2499E+00
      7.461  0.6584E-01  0.2522E+00
      7.496  0.6355E-01  0.2544E+00
      7.531  0.5996E-01  0.2565E+00
      7.565  0.5703E-01  0.2585E+00
      7.600  0.5544E-01  0.2604E+00
      7.635  0.5455E-01  0.2623E+00
      7.670  0.5318E-01  0.2641E+00
      7.705  0.5022E-01  0.2659E+00
      7.739  0.4498E-01  0.2674E+00
      7.774  0.3749E-01  0.2687E+00
      7.809  0.2862E-01  0.2697E+00
      7.844  0.1993E-01  0.2704E+00
      7.879  0.1294E-01  0.2709E+00
      7.913  0.8423E-02  0.2712E+00
      7.948  0.6103E-02  0.2714E+00
      7.983  0.5036E-02  0.2716E+00
      8.018  0.4303E-02  0.2717E+00
      8.052  0.3415E-02  0.2718E+00
      8.087  0.2358E-02  0.2719E+00
      8.122  0.1366E-02  0.2720E+00
      8.157  0.6511E-03  0.2720E+00
      8.192  0.2518E-03  0.2720E+00
      8.226  0.7830E-04  0.2720E+00
      8.261  0.1946E-04  0.2720E+00
      8.296  0.3849E-05  0.2720E+00
      8.331  0.6038E-06  0.2720E+00
      8.366  0.7498E-07  0.2720E+00
      8.400  0.7359E-08  0.2720E+00
      8.435  0.5702E-09  0.2720E+00
      8.470  0.3485E-10  0.2720E+00
      8.505  0.1679E-11  0.2720E+00
      8.540  0.6372E-13  0.2720E+00
      8.574  0.1905E-14  0.2720E+00
      8.609  0.4467E-16  0.2720E+00
      8.644  0.1064E-17  0.2720E+00
      8.679  0.0000E+00  0.2720E+00
      8.714  0.0000E+00  0.2720E+00
      8.748  0.0000E+00  0.2720E+00
      8.783  0.0000E+00  0.2720E+00
      8.818  0.0000E+00  0.2720E+00
      8.853  0.0000E+00  0.2720E+00
      8.888  0.0000E+00  0.2720E+00
      8.922  0.0000E+00  0.2720E+00
      8.957  0.0000E+00  0.2720E+00
      8.992  0.0000E+00  0.2720E+00
      9.027  0.0000E+00  0.2720E+00
