   20   20  500    1
  0.1259460E+02  0.6374399E-09  0.9710523E-09  0.4138048E-09  0.5000000E-15
  1.000000000000000E-004
  CAR 
 unknown system                          
    109      8     68
 
  0.0000000E+00  0.0000000E+00  0.0000000E+00  0.8333333E-01
    1       -0.411332   1.000000
    2        1.299399   1.000000
    3        1.523634   1.000000
    4        2.837388   1.000000
    5        2.953143   1.000000
    6        3.053812   1.000000
    7        3.135863   1.000000
    8        3.235970   1.000000
    9        3.556204   1.000000
   10        3.594008   1.000000
   11        3.718789   1.000000
   12        3.738520   1.000000
   13        3.890234   1.000000
   14        3.941081   1.000000
   15        3.999717   1.000000
   16        4.067772   1.000000
   17        4.119345   1.000000
   18        4.155356   1.000000
   19        4.212191   1.000000
   20        4.343411   1.000000
   21        4.364827   1.000000
   22        4.385236   1.000000
   23        4.563316   1.000000
   24        4.571245   1.000000
   25        4.591563   1.000000
   26        4.637717   1.000000
   27        4.752562   1.000000
   28        4.805381   1.000000
   29        4.815365   1.000000
   30        4.855330   1.000000
   31        4.884635   1.000000
   32        4.982790   1.000000
   33        4.985568   1.000000
   34        5.116085   1.000000
   35        5.173384   1.000000
   36        5.261168   1.000000
   37        5.262227   1.000000
   38        5.298670   1.000000
   39        5.348619   1.000000
   40        5.492565   1.000000
   41        5.500332   1.000000
   42        5.662242   1.000000
   43        5.775143   1.000000
   44        5.897907   1.000000
   45        5.957405   1.000000
   46        6.057670   1.000000
   47        6.190086   1.000000
   48        6.209539   0.999999
   49        6.308494   0.999635
   50        6.345330   0.997862
   51        6.396194   0.983728
   52        6.453008   0.908932
   53        6.478296   0.835611
   54        6.505659   0.722274
   55        6.656588   0.061192
   56        6.683412   0.027165
   57        6.862685   0.000004
   58        6.866913   0.000003
   59        6.987667   0.000000
   60        7.233661   0.000000
   61        7.250222   0.000000
   62        7.377754   0.000000
   63        7.490545   0.000000
   64        7.546312   0.000000
   65        7.547906   0.000000
   66        7.670885   0.000000
   67        7.687163   0.000000
   68        7.803979   0.000000
 
  0.5000000E+00  0.4940274E-17 -0.1774866E-22  0.8333333E-01
    1        0.542943   1.000000
    2        0.788643   1.000000
    3        1.748698   1.000000
    4        1.994728   1.000000
    5        2.590151   1.000000
    6        2.640229   1.000000
    7        2.983695   1.000000
    8        3.072913   1.000000
    9        3.094582   1.000000
   10        3.572666   1.000000
   11        3.741246   1.000000
   12        3.830876   1.000000
   13        3.877645   1.000000
   14        3.945561   1.000000
   15        4.037585   1.000000
   16        4.112809   1.000000
   17        4.155157   1.000000
   18        4.210631   1.000000
   19        4.271000   1.000000
   20        4.306889   1.000000
   21        4.426572   1.000000
   22        4.472928   1.000000
   23        4.517286   1.000000
   24        4.543347   1.000000
   25        4.591681   1.000000
   26        4.652684   1.000000
   27        4.855564   1.000000
   28        5.001652   1.000000
   29        5.011421   1.000000
   30        5.087099   1.000000
   31        5.116616   1.000000
   32        5.131766   1.000000
   33        5.195550   1.000000
   34        5.249209   1.000000
   35        5.279879   1.000000
   36        5.340402   1.000000
   37        5.394831   1.000000
   38        5.477052   1.000000
   39        5.510293   1.000000
   40        5.657300   1.000000
   41        5.734325   1.000000
   42        5.738755   1.000000
   43        5.807588   1.000000
   44        5.852750   1.000000
   45        5.908817   1.000000
   46        5.916107   1.000000
   47        5.943768   1.000000
   48        5.952852   1.000000
   49        5.981255   1.000000
   50        6.023951   1.000000
   51        6.098121   1.000000
   52        6.127112   1.000000
   53        6.194834   1.000000
   54        6.279391   0.999925
   55        6.301401   0.999748
   56        6.493889   0.775195
   57        7.204095   0.000000
   58        7.217802   0.000000
   59        7.376844   0.000000
   60        7.382718   0.000000
   61        7.403784   0.000000
   62        7.438001   0.000000
   63        7.461520   0.000000
   64        7.541693   0.000000
   65        7.768673   0.000000
   66        7.900018   0.000000
   67        7.969294   0.000000
   68        8.026706   0.000000
 
 -0.1782088E-18  0.5000000E+00  0.1096510E-20  0.8333333E-01
    1       -0.032896   1.000000
    2        0.210723   1.000000
    3        2.581301   1.000000
    4        2.753534   1.000000
    5        2.941842   1.000000
    6        3.062921   1.000000
    7        3.284916   1.000000
    8        3.444384   1.000000
    9        3.574737   1.000000
   10        3.619148   1.000000
   11        3.687249   1.000000
   12        3.711541   1.000000
   13        3.812869   1.000000
   14        3.847513   1.000000
   15        3.926512   1.000000
   16        3.936728   1.000000
   17        4.006789   1.000000
   18        4.075538   1.000000
   19        4.109256   1.000000
   20        4.151246   1.000000
   21        4.412252   1.000000
   22        4.453745   1.000000
   23        4.523341   1.000000
   24        4.588407   1.000000
   25        4.635504   1.000000
   26        4.677136   1.000000
   27        4.678317   1.000000
   28        4.760723   1.000000
   29        4.850910   1.000000
   30        4.852122   1.000000
   31        4.945792   1.000000
   32        4.967213   1.000000
   33        5.122897   1.000000
   34        5.137833   1.000000
   35        5.177939   1.000000
   36        5.290750   1.000000
   37        5.367226   1.000000
   38        5.413193   1.000000
   39        5.452750   1.000000
   40        5.454328   1.000000
   41        5.531660   1.000000
   42        5.559487   1.000000
   43        5.600864   1.000000
   44        5.605358   1.000000
   45        5.714059   1.000000
   46        5.898235   1.000000
   47        6.233100   0.999996
   48        6.280841   0.999918
   49        6.283808   0.999903
   50        6.330312   0.998928
   51        6.392461   0.985755
   52        6.553935   0.462906
   53        6.599939   0.228526
   54        6.614850   0.169895
   55        6.831258   0.000030
   56        6.940364   0.000000
   57        6.981739   0.000000
   58        7.085410   0.000000
   59        7.109150   0.000000
   60        7.174903   0.000000
   61        7.206160   0.000000
   62        7.240117   0.000000
   63        7.303597   0.000000
   64        7.389357   0.000000
   65        7.504021   0.000000
   66        7.672862   0.000000
   67        7.728065   0.000000
   68        7.800489   0.000000
 
  0.5000000E+00  0.5000000E+00 -0.1936696E-19  0.8333333E-01
    1        0.708296   1.000000
    2        0.952181   1.000000
    3        1.276245   1.000000
    4        1.488990   1.000000
    5        3.120876   1.000000
    6        3.248786   1.000000
    7        3.263894   1.000000
    8        3.274361   1.000000
    9        3.333189   1.000000
   10        3.403998   1.000000
   11        3.433112   1.000000
   12        3.459659   1.000000
   13        3.637354   1.000000
   14        3.751145   1.000000
   15        3.771522   1.000000
   16        3.809030   1.000000
   17        4.087663   1.000000
   18        4.251469   1.000000
   19        4.391559   1.000000
   20        4.520328   1.000000
   21        4.576340   1.000000
   22        4.634280   1.000000
   23        4.718414   1.000000
   24        4.772988   1.000000
   25        4.796678   1.000000
   26        4.802928   1.000000
   27        4.829564   1.000000
   28        4.881811   1.000000
   29        4.927154   1.000000
   30        4.937482   1.000000
   31        5.039049   1.000000
   32        5.086959   1.000000
   33        5.174654   1.000000
   34        5.224498   1.000000
   35        5.229544   1.000000
   36        5.318419   1.000000
   37        5.360698   1.000000
   38        5.442681   1.000000
   39        5.518907   1.000000
   40        5.557210   1.000000
   41        5.579243   1.000000
   42        5.667737   1.000000
   43        5.714207   1.000000
   44        5.718563   1.000000
   45        5.803446   1.000000
   46        5.850034   1.000000
   47        5.991641   1.000000
   48        6.020856   1.000000
   49        6.051517   1.000000
   50        6.073919   1.000000
   51        6.169351   1.000000
   52        6.278434   0.999929
   53        6.299588   0.999771
   54        6.451595   0.912161
   55        6.484669   0.812312
   56        6.945146   0.000000
   57        7.120312   0.000000
   58        7.223498   0.000000
   59        7.227556   0.000000
   60        7.301655   0.000000
   61        7.408470   0.000000
   62        7.426760   0.000000
   63        7.475414   0.000000
   64        7.491093   0.000000
   65        7.625269   0.000000
   66        7.635954   0.000000
   67        7.676609   0.000000
   68        7.689914   0.000000
 
  0.2317921E-20  0.4587664E-19  0.3333333E+00  0.1666667E+00
    1        0.679436   1.000000
    2        2.057693   1.000000
    3        2.329005   1.000000
    4        2.733373   1.000000
    5        3.017384   1.000000
    6        3.157032   1.000000
    7        3.403255   1.000000
    8        3.440259   1.000000
    9        3.620880   1.000000
   10        3.636419   1.000000
   11        3.700150   1.000000
   12        3.750886   1.000000
   13        3.802398   1.000000
   14        3.877683   1.000000
   15        3.912737   1.000000
   16        3.955568   1.000000
   17        3.981790   1.000000
   18        4.014349   1.000000
   19        4.101251   1.000000
   20        4.133906   1.000000
   21        4.182386   1.000000
   22        4.316735   1.000000
   23        4.640986   1.000000
   24        4.683963   1.000000
   25        4.707756   1.000000
   26        4.796524   1.000000
   27        4.856839   1.000000
   28        4.917829   1.000000
   29        4.957567   1.000000
   30        5.030210   1.000000
   31        5.068514   1.000000
   32        5.109003   1.000000
   33        5.173379   1.000000
   34        5.294176   1.000000
   35        5.358757   1.000000
   36        5.379008   1.000000
   37        5.446244   1.000000
   38        5.465784   1.000000
   39        5.518522   1.000000
   40        5.609399   1.000000
   41        5.637907   1.000000
   42        5.718668   1.000000
   43        5.737258   1.000000
   44        5.831520   1.000000
   45        5.861545   1.000000
   46        6.007681   1.000000
   47        6.094143   1.000000
   48        6.128601   1.000000
   49        6.183220   1.000000
   50        6.230606   0.999996
   51        6.262176   0.999972
   52        6.345656   0.997830
   53        6.454980   0.904279
   54        6.468605   0.867282
   55        6.562053   0.417642
   56        6.710731   0.010429
   57        7.036614   0.000000
   58        7.078016   0.000000
   59        7.173381   0.000000
   60        7.194449   0.000000
   61        7.312453   0.000000
   62        7.373194   0.000000
   63        7.424110   0.000000
   64        7.490344   0.000000
   65        7.529153   0.000000
   66        7.593117   0.000000
   67        7.658296   0.000000
   68        7.737659   0.000000
 
  0.5000000E+00 -0.2748665E-17  0.3333333E+00  0.1666667E+00
    1        1.479432   1.000000
    2        1.742642   1.000000
    3        2.324909   1.000000
    4        2.623687   1.000000
    5        2.906395   1.000000
    6        2.957760   1.000000
    7        3.122783   1.000000
    8        3.175439   1.000000
    9        3.374858   1.000000
   10        3.509376   1.000000
   11        3.590418   1.000000
   12        3.622127   1.000000
   13        3.707422   1.000000
   14        3.775257   1.000000
   15        3.861483   1.000000
   16        3.901196   1.000000
   17        3.924547   1.000000
   18        4.118575   1.000000
   19        4.204565   1.000000
   20        4.370193   1.000000
   21        4.397181   1.000000
   22        4.573934   1.000000
   23        4.623032   1.000000
   24        4.676932   1.000000
   25        4.743839   1.000000
   26        4.789115   1.000000
   27        4.910004   1.000000
   28        4.963388   1.000000
   29        5.009776   1.000000
   30        5.070889   1.000000
   31        5.113357   1.000000
   32        5.233721   1.000000
   33        5.287911   1.000000
   34        5.320142   1.000000
   35        5.388140   1.000000
   36        5.437975   1.000000
   37        5.482944   1.000000
   38        5.596626   1.000000
   39        5.681235   1.000000
   40        5.691994   1.000000
   41        5.713361   1.000000
   42        5.818447   1.000000
   43        5.882755   1.000000
   44        5.939536   1.000000
   45        5.989120   1.000000
   46        6.045970   1.000000
   47        6.083844   1.000000
   48        6.091990   1.000000
   49        6.128257   1.000000
   50        6.184423   1.000000
   51        6.222892   0.999998
   52        6.255697   0.999981
   53        6.339036   0.998390
   54        6.375498   0.992458
   55        6.422911   0.960782
   56        6.443823   0.928417
   57        6.480873   0.826425
   58        7.080294   0.000000
   59        7.084702   0.000000
   60        7.272019   0.000000
   61        7.340848   0.000000
   62        7.414868   0.000000
   63        7.434849   0.000000
   64        7.578147   0.000000
   65        7.591451   0.000000
   66        7.659906   0.000000
   67        7.718124   0.000000
   68        7.777642   0.000000
 
  0.5869446E-18  0.5000000E+00  0.3333333E+00  0.1666667E+00
    1        0.997815   1.000000
    2        1.251578   1.000000
    3        2.927912   1.000000
    4        2.998867   1.000000
    5        3.141596   1.000000
    6        3.231100   1.000000
    7        3.284271   1.000000
    8        3.313245   1.000000
    9        3.434994   1.000000
   10        3.492377   1.000000
   11        3.522837   1.000000
   12        3.525506   1.000000
   13        3.754245   1.000000
   14        3.809079   1.000000
   15        3.919829   1.000000
   16        3.948641   1.000000
   17        3.969130   1.000000
   18        4.026928   1.000000
   19        4.135733   1.000000
   20        4.205895   1.000000
   21        4.281466   1.000000
   22        4.360456   1.000000
   23        4.593882   1.000000
   24        4.653439   1.000000
   25        4.740337   1.000000
   26        4.808798   1.000000
   27        4.858774   1.000000
   28        4.915209   1.000000
   29        4.943629   1.000000
   30        5.005839   1.000000
   31        5.041378   1.000000
   32        5.173911   1.000000
   33        5.303414   1.000000
   34        5.326490   1.000000
   35        5.412784   1.000000
   36        5.466760   1.000000
   37        5.495952   1.000000
   38        5.583481   1.000000
   39        5.700375   1.000000
   40        5.759825   1.000000
   41        5.788749   1.000000
   42        5.843787   1.000000
   43        5.887986   1.000000
   44        6.004438   1.000000
   45        6.030600   1.000000
   46        6.075489   1.000000
   47        6.095900   1.000000
   48        6.105744   1.000000
   49        6.126704   1.000000
   50        6.152279   1.000000
   51        6.203676   0.999999
   52        6.228708   0.999997
   53        6.265524   0.999966
   54        6.366550   0.994720
   55        6.523364   0.632779
   56        6.599806   0.229095
   57        6.639372   0.096563
   58        6.703482   0.013621
   59        7.140657   0.000000
   60        7.249767   0.000000
   61        7.336087   0.000000
   62        7.423762   0.000000
   63        7.449781   0.000000
   64        7.520649   0.000000
   65        7.605325   0.000000
   66        7.621520   0.000000
   67        7.717676   0.000000
   68        7.788941   0.000000
 
  0.5000000E+00  0.5000000E+00  0.3333333E+00  0.1666667E+00
    1        1.614146   1.000000
    2        1.888111   1.000000
    3        2.012722   1.000000
    4        2.270140   1.000000
    5        2.920130   1.000000
    6        3.045407   1.000000
    7        3.362429   1.000000
    8        3.441985   1.000000
    9        3.483837   1.000000
   10        3.592093   1.000000
   11        3.648117   1.000000
   12        3.674675   1.000000
   13        3.769118   1.000000
   14        3.801508   1.000000
   15        3.843388   1.000000
   16        3.851158   1.000000
   17        3.884872   1.000000
   18        3.997222   1.000000
   19        4.015869   1.000000
   20        4.053877   1.000000
   21        4.105854   1.000000
   22        4.124260   1.000000
   23        4.713687   1.000000
   24        4.752329   1.000000
   25        4.825443   1.000000
   26        4.883292   1.000000
   27        4.951070   1.000000
   28        5.059625   1.000000
   29        5.153486   1.000000
   30        5.215203   1.000000
   31        5.237664   1.000000
   32        5.283884   1.000000
   33        5.357315   1.000000
   34        5.368073   1.000000
   35        5.411885   1.000000
   36        5.448542   1.000000
   37        5.517741   1.000000
   38        5.558485   1.000000
   39        5.584207   1.000000
   40        5.615579   1.000000
   41        5.759614   1.000000
   42        5.776315   1.000000
   43        5.808901   1.000000
   44        5.943096   1.000000
   45        5.964815   1.000000
   46        6.028939   1.000000
   47        6.041209   1.000000
   48        6.128436   1.000000
   49        6.166652   1.000000
   50        6.268540   0.999960
   51        6.372295   0.993350
   52        6.394816   0.984504
   53        6.541085   0.535306
   54        6.572587   0.360587
   55        6.586408   0.290351
   56        6.686958   0.024171
   57        6.781131   0.000473
   58        6.834317   0.000025
   59        6.918633   0.000000
   60        6.980486   0.000000
   61        7.090670   0.000000
   62        7.159139   0.000000
   63        7.291985   0.000000
   64        7.367509   0.000000
   65        7.446550   0.000000
   66        7.468579   0.000000
   67        7.577040   0.000000
   68        7.702382   0.000000
