       N       E                     dE             d eps       ncg     rms          rms(c)
DAV:   1     0.633192871178E+03    0.63319E+03   -0.22542E+04  1088   0.109E+03
DAV:   2    -0.786582736724E+02   -0.71185E+03   -0.68843E+03  1088   0.343E+02
DAV:   3    -0.196437872092E+03   -0.11778E+03   -0.11121E+03  1796   0.149E+02
DAV:   4    -0.207943659924E+03   -0.11506E+02   -0.10867E+02  1752   0.607E+01
DAV:   5    -0.208507906441E+03   -0.56425E+00   -0.55452E+00  1736   0.112E+01    0.594E+01
DAV:   6    -0.240204966274E+03   -0.31697E+02   -0.53616E+02  2008   0.192E+02    0.924E+01
DAV:   7    -0.182910698332E+03    0.57294E+02   -0.42136E+02  2044   0.134E+02    0.234E+01
DAV:   8    -0.205897436329E+03   -0.22987E+02   -0.30055E+02  2144   0.120E+02    0.547E+01
DAV:   9    -0.180060593854E+03    0.25837E+02   -0.19265E+02  2120   0.101E+02    0.181E+01
DAV:  10    -0.179486664825E+03    0.57393E+00   -0.19502E+01  2072   0.306E+01    0.112E+01
DAV:  11    -0.179358703869E+03    0.12796E+00   -0.13511E+00  1864   0.995E+00    0.103E+01
DAV:  12    -0.179339722498E+03    0.18981E-01   -0.14173E+00  2016   0.887E+00    0.102E+01
DAV:  13    -0.179143505615E+03    0.19622E+00   -0.47011E+00  2080   0.170E+01    0.956E+00
DAV:  14    -0.179057228614E+03    0.86277E-01   -0.24784E+00  2064   0.154E+01    0.858E+00
DAV:  15    -0.178775283197E+03    0.28195E+00   -0.82405E-01  2104   0.825E+00    0.481E+00
DAV:  16    -0.178743110142E+03    0.32173E-01   -0.16170E-01  2008   0.312E+00    0.384E+00
DAV:  17    -0.178766019485E+03   -0.22909E-01   -0.11002E-01  2088   0.298E+00    0.338E+00
DAV:  18    -0.178750398956E+03    0.15621E-01   -0.91926E-02  2104   0.222E+00    0.287E+00
DAV:  19    -0.178719234854E+03    0.31164E-01   -0.76152E-02  2000   0.209E+00    0.165E+00
DAV:  20    -0.178713047164E+03    0.61877E-02   -0.21292E-02  1808   0.102E+00    0.123E+00
DAV:  21    -0.178709246397E+03    0.38008E-02   -0.77209E-03  2000   0.627E-01    0.791E-01
DAV:  22    -0.178708096455E+03    0.11499E-02   -0.24215E-03  1920   0.341E-01    0.607E-01
DAV:  23    -0.178706816866E+03    0.12796E-02   -0.29354E-03  1856   0.404E-01    0.234E-01
DAV:  24    -0.178706685901E+03    0.13097E-03   -0.12701E-03  1928   0.226E-01    0.122E-01
DAV:  25    -0.178706607161E+03    0.78740E-04   -0.55589E-04  2128   0.165E-01    0.217E-02
DAV:  26    -0.178706609784E+03   -0.26235E-05   -0.60496E-05  1360   0.583E-02
   1 F= -.17870661E+03 E0= -.17864866E+03  d E =-.178707E+03
       N       E                     dE             d eps       ncg     rms          rms(c)
DAV:   1    -0.178793096671E+03   -0.86490E-01   -0.71878E+00  1088   0.959E+00    0.127E+00
DAV:   2    -0.179099497621E+03   -0.30640E+00   -0.25138E+00  2112   0.133E+01    0.549E+00
DAV:   3    -0.178789417751E+03    0.31008E+00   -0.15883E+00  2096   0.112E+01    0.117E+00
DAV:   4    -0.178786032831E+03    0.33849E-02   -0.10770E-01  1880   0.314E+00    0.723E-01
DAV:   5    -0.178789853701E+03   -0.38209E-02   -0.51839E-02  2104   0.214E+00    0.111E+00
DAV:   6    -0.178782601577E+03    0.72521E-02   -0.51018E-02  2144   0.207E+00    0.408E-01
DAV:   7    -0.178784195327E+03   -0.15938E-02   -0.26609E-02  2160   0.130E+00    0.561E-01
DAV:   8    -0.178781498347E+03    0.26970E-02   -0.16660E-02  2160   0.102E+00    0.189E-01
DAV:   9    -0.178781301365E+03    0.19698E-03   -0.15850E-03  1904   0.417E-01    0.830E-02
DAV:  10    -0.178781288730E+03    0.12635E-04   -0.54207E-04  2024   0.200E-01    0.607E-02
DAV:  11    -0.178781259902E+03    0.28828E-04   -0.42138E-04  2072   0.155E-01    0.371E-02
DAV:  12    -0.178781251637E+03    0.82650E-05   -0.59671E-05  1320   0.782E-02
   2 F= -.17878125E+03 E0= -.17872456E+03  d E =-.746419E-01
       N       E                     dE             d eps       ncg     rms          rms(c)
DAV:   1    -0.178803448263E+03   -0.22188E-01   -0.38215E+00  1088   0.701E+00    0.927E-01
DAV:   2    -0.178965754205E+03   -0.16231E+00   -0.13551E+00  2104   0.973E+00    0.398E+00
DAV:   3    -0.178801723132E+03    0.16403E+00   -0.85763E-01  2088   0.817E+00    0.844E-01
DAV:   4    -0.178799764862E+03    0.19583E-02   -0.55154E-02  1872   0.225E+00    0.505E-01
DAV:   5    -0.178801672929E+03   -0.19081E-02   -0.26735E-02  2128   0.153E+00    0.791E-01
DAV:   6    -0.178798164549E+03    0.35084E-02   -0.26253E-02  2144   0.149E+00    0.316E-01
DAV:   7    -0.178798910875E+03   -0.74633E-03   -0.14102E-02  2160   0.958E-01    0.397E-01
DAV:   8    -0.178797454310E+03    0.14566E-02   -0.89722E-03  2136   0.714E-01    0.111E-01
DAV:   9    -0.178797408365E+03    0.45945E-04   -0.78786E-04  1904   0.282E-01    0.701E-02
DAV:  10    -0.178797395047E+03    0.13318E-04   -0.28369E-04  1912   0.165E-01    0.480E-02
DAV:  11    -0.178797377694E+03    0.17353E-04   -0.23082E-04  1960   0.122E-01    0.281E-02
DAV:  12    -0.178797372034E+03    0.56598E-05   -0.25303E-05   872   0.611E-02
   3 F= -.17879737E+03 E0= -.17874092E+03  d E =-.907622E-01
       N       E                     dE             d eps       ncg     rms          rms(c)
DAV:   1    -0.178835687888E+03   -0.38310E-01   -0.20379E+00  1176   0.831E+00    0.250E+00
DAV:   2    -0.180188486710E+03   -0.13528E+01   -0.67832E+00  2152   0.243E+01    0.145E+01
DAV:   3    -0.178792967415E+03    0.13955E+01   -0.46940E+00  2120   0.197E+01    0.110E+00
DAV:   4    -0.178820508348E+03   -0.27541E-01   -0.38005E-01  2024   0.447E+00    0.150E+00
DAV:   5    -0.178810033376E+03    0.10475E-01   -0.85743E-02  1960   0.318E+00    0.750E-01
DAV:   6    -0.178806009650E+03    0.40237E-02   -0.51984E-02  2024   0.178E+00    0.379E-01
DAV:   7    -0.178806189471E+03   -0.17982E-03   -0.15603E-02  2080   0.954E-01    0.353E-01
DAV:   8    -0.178804830995E+03    0.13585E-02   -0.83923E-03  1960   0.679E-01    0.113E-01
DAV:   9    -0.178805072204E+03   -0.24121E-03   -0.20242E-03  2032   0.423E-01    0.221E-01
DAV:  10    -0.178804771861E+03    0.30034E-03   -0.12444E-03  2000   0.375E-01    0.609E-02
DAV:  11    -0.178804771591E+03    0.26977E-06   -0.36033E-04  2120   0.152E-01    0.523E-02
DAV:  12    -0.178804751153E+03    0.20438E-04   -0.13816E-04  1752   0.991E-02    0.192E-02
DAV:  13    -0.178804749740E+03    0.14131E-05   -0.17454E-05   744   0.446E-02
   4 F= -.17880475E+03 E0= -.17874661E+03  d E =-.737771E-02
       N       E                     dE             d eps       ncg     rms          rms(c)
DAV:   1    -0.178805779571E+03   -0.10284E-02   -0.50888E-02  1176   0.130E+00    0.396E-01
DAV:   2    -0.178840410952E+03   -0.34631E-01   -0.15882E-01  2160   0.383E+00    0.243E+00
DAV:   3    -0.178804818699E+03    0.35592E-01   -0.12750E-01  2160   0.339E+00    0.181E-01
DAV:   4    -0.178805288030E+03   -0.46933E-03   -0.77543E-03  1736   0.745E-01    0.221E-01
DAV:   5    -0.178805131306E+03    0.15672E-03   -0.21437E-03  1736   0.501E-01    0.104E-01
DAV:   6    -0.178805040767E+03    0.90539E-04   -0.12152E-03  1776   0.249E-01    0.754E-02
DAV:   7    -0.178805033158E+03    0.76090E-05   -0.35731E-04  2128   0.159E-01    0.527E-02
DAV:   8    -0.178805005285E+03    0.27872E-04   -0.18333E-04  1880   0.102E-01    0.146E-02
DAV:   9    -0.178805009961E+03   -0.46755E-05   -0.27844E-05  1048   0.687E-02
   5 F= -.17880501E+03 E0= -.17874713E+03  d E =-.763793E-02
       N       E                     dE             d eps       ncg     rms          rms(c)
DAV:   1    -0.178816816094E+03   -0.11811E-01   -0.14167E+00  1088   0.502E+00    0.109E+00
DAV:   2    -0.179038011058E+03   -0.22119E+00   -0.11620E+00  2120   0.102E+01    0.603E+00
DAV:   3    -0.178812208363E+03    0.22580E+00   -0.87134E-01  2120   0.880E+00    0.559E-01
DAV:   4    -0.178814039153E+03   -0.18308E-02   -0.57251E-02  1872   0.194E+00    0.498E-01
DAV:   5    -0.178814725956E+03   -0.68680E-03   -0.21772E-02  1824   0.165E+00    0.588E-01
DAV:   6    -0.178812331351E+03    0.23946E-02   -0.15993E-02  1848   0.119E+00    0.189E-01
DAV:   7    -0.178812327954E+03    0.33969E-05   -0.33173E-03  2080   0.484E-01    0.153E-01
DAV:   8    -0.178812066835E+03    0.26112E-03   -0.19120E-03  2048   0.340E-01    0.637E-02
DAV:   9    -0.178812150002E+03   -0.83167E-04   -0.78451E-04  2160   0.253E-01    0.119E-01
DAV:  10    -0.178812048538E+03    0.10146E-03   -0.52120E-04  2112   0.225E-01    0.401E-02
DAV:  11    -0.178812039814E+03    0.87240E-05   -0.76245E-05  1528   0.877E-02
   6 F= -.17881204E+03 E0= -.17875342E+03  d E =-.702985E-02
       N       E                     dE             d eps       ncg     rms          rms(c)
DAV:   1    -0.178812696661E+03   -0.64812E-03   -0.11882E-01  1088   0.146E+00    0.316E-01
DAV:   2    -0.178831232944E+03   -0.18536E-01   -0.98328E-02  2120   0.294E+00    0.175E+00
DAV:   3    -0.178812357155E+03    0.18876E-01   -0.72756E-02  2120   0.252E+00    0.167E-01
DAV:   4    -0.178812480958E+03   -0.12380E-03   -0.45732E-03  1848   0.557E-01    0.142E-01
DAV:   5    -0.178812545388E+03   -0.64430E-04   -0.18195E-03  1800   0.479E-01    0.171E-01
DAV:   6    -0.178812341680E+03    0.20371E-03   -0.13389E-03  1808   0.344E-01    0.513E-02
DAV:   7    -0.178812344753E+03   -0.30726E-05   -0.26841E-04  2048   0.137E-01    0.444E-02
DAV:   8    -0.178812322709E+03    0.22044E-04   -0.15638E-04  1704   0.991E-02    0.188E-02
DAV:   9    -0.178812328856E+03   -0.61473E-05   -0.51574E-05  1256   0.773E-02
   7 F= -.17881233E+03 E0= -.17875349E+03  d E =-.731890E-02
       N       E                     dE             d eps       ncg     rms          rms(c)
DAV:   1    -0.178815729173E+03   -0.34065E-02   -0.54603E-01  1088   0.263E+00    0.396E-01
DAV:   2    -0.178850078994E+03   -0.34350E-01   -0.17601E-01  2144   0.392E+00    0.235E+00
DAV:   3    -0.178815685422E+03    0.34394E-01   -0.11857E-01  2136   0.328E+00    0.216E-01
DAV:   4    -0.178815957402E+03   -0.27198E-03   -0.74401E-03  1752   0.696E-01    0.199E-01
DAV:   5    -0.178815831590E+03    0.12581E-03   -0.23245E-03  1736   0.548E-01    0.155E-01
DAV:   6    -0.178815664061E+03    0.16753E-03   -0.25966E-03  2048   0.422E-01    0.107E-01
DAV:   7    -0.178815580224E+03    0.83837E-04   -0.10752E-03  2064   0.238E-01    0.701E-02
DAV:   8    -0.178815538662E+03    0.41562E-04   -0.43482E-04  2120   0.155E-01    0.309E-02
DAV:   9    -0.178815551867E+03   -0.13205E-04   -0.13476E-04  1912   0.119E-01    0.554E-02
DAV:  10    -0.178815530910E+03    0.20957E-04   -0.89733E-05  1728   0.976E-02    0.132E-02
DAV:  11    -0.178815529639E+03    0.12708E-05   -0.10655E-05   660   0.352E-02
   8 F= -.17881553E+03 E0= -.17875677E+03  d E =-.320078E-02
       N       E                     dE             d eps       ncg     rms          rms(c)
DAV:   1    -0.178818241454E+03   -0.27105E-02   -0.16726E+00  1088   0.462E+00    0.701E-01
DAV:   2    -0.178925872664E+03   -0.10763E+00   -0.55409E-01  2144   0.695E+00    0.415E+00
DAV:   3    -0.178818049898E+03    0.10782E+00   -0.36829E-01  2136   0.576E+00    0.372E-01
DAV:   4    -0.178819020908E+03   -0.97101E-03   -0.23693E-02  1800   0.122E+00    0.358E-01
DAV:   5    -0.178818577079E+03    0.44383E-03   -0.72464E-03  1784   0.969E-01    0.276E-01
DAV:   6    -0.178818079641E+03    0.49744E-03   -0.79351E-03  2048   0.746E-01    0.189E-01
DAV:   7    -0.178817818955E+03    0.26069E-03   -0.31943E-03  2088   0.415E-01    0.123E-01
DAV:   8    -0.178817692322E+03    0.12663E-03   -0.13002E-03  2144   0.278E-01    0.568E-02
DAV:   9    -0.178817739716E+03   -0.47394E-04   -0.45699E-04  2048   0.218E-01    0.104E-01
DAV:  10    -0.178817665686E+03    0.74030E-04   -0.32628E-04  2032   0.174E-01    0.201E-02
DAV:  11    -0.178817662453E+03    0.32327E-05   -0.26736E-05   896   0.559E-02
   9 F= -.17881766E+03 E0= -.17875908E+03  d E =-.533360E-02
       N       E                     dE             d eps       ncg     rms          rms(c)
DAV:   1    -0.178825488243E+03   -0.78226E-02   -0.80293E-01  1104   0.414E+00    0.107E+00
DAV:   2    -0.179046672476E+03   -0.22118E+00   -0.10511E+00  2136   0.999E+00    0.611E+00
DAV:   3    -0.178819223382E+03    0.22745E+00   -0.83516E-01  2144   0.880E+00    0.466E-01
DAV:   4    -0.178823132901E+03   -0.39095E-02   -0.62777E-02  1872   0.199E+00    0.621E-01
DAV:   5    -0.178821843497E+03    0.12894E-02   -0.18321E-02  1824   0.147E+00    0.390E-01
DAV:   6    -0.178820718753E+03    0.11247E-02   -0.11513E-02  1888   0.825E-01    0.195E-01
DAV:   7    -0.178820572731E+03    0.14602E-03   -0.21665E-03  2048   0.395E-01    0.119E-01
DAV:   8    -0.178820417740E+03    0.15499E-03   -0.10470E-03  2128   0.270E-01    0.432E-02
DAV:   9    -0.178820482171E+03   -0.64431E-04   -0.50529E-04  2032   0.216E-01    0.109E-01
DAV:  10    -0.178820401387E+03    0.80783E-04   -0.34687E-04  2032   0.195E-01    0.266E-02
DAV:  11    -0.178820396498E+03    0.48897E-05   -0.56589E-05  1288   0.647E-02
  10 F= -.17882040E+03 E0= -.17876285E+03  d E =-.273404E-02
       N       E                     dE             d eps       ncg     rms          rms(c)
DAV:   1    -0.178820402859E+03   -0.14718E-05   -0.11442E-03  1160   0.157E-01    0.394E-02
DAV:   2    -0.178820679551E+03   -0.27669E-03   -0.13600E-03  2136   0.351E-01    0.214E-01
DAV:   3    -0.178820396994E+03    0.28256E-03   -0.10315E-03  2136   0.307E-01    0.198E-02
DAV:   4    -0.178820400119E+03   -0.31250E-05   -0.75919E-05  1448   0.774E-02
  11 F= -.17882040E+03 E0= -.17876289E+03  d E =-.273767E-02
       N       E                     dE             d eps       ncg     rms          rms(c)
DAV:   1    -0.178824866260E+03   -0.44693E-02   -0.66040E-01  1096   0.339E+00    0.766E-01
DAV:   2    -0.178937530763E+03   -0.11266E+00   -0.59093E-01  2136   0.721E+00    0.430E+00
DAV:   3    -0.178822457264E+03    0.11507E+00   -0.42482E-01  2136   0.605E+00    0.402E-01
DAV:   4    -0.178823347308E+03   -0.89004E-03   -0.27408E-02  1768   0.138E+00    0.363E-01
DAV:   5    -0.178823418847E+03   -0.71539E-04   -0.10499E-02  1760   0.117E+00    0.351E-01
DAV:   6    -0.178822390124E+03    0.10287E-02   -0.73829E-03  1800   0.760E-01    0.114E-01
DAV:   7    -0.178822389119E+03    0.10046E-05   -0.15225E-03  2096   0.310E-01    0.107E-01
DAV:   8    -0.178822276970E+03    0.11215E-03   -0.81425E-04  2168   0.233E-01    0.471E-02
DAV:   9    -0.178822311365E+03   -0.34395E-04   -0.33135E-04  2016   0.183E-01    0.878E-02
DAV:  10    -0.178822256088E+03    0.55277E-04   -0.23326E-04  1984   0.153E-01    0.175E-02
DAV:  11    -0.178822253740E+03    0.23478E-05   -0.19868E-05   824   0.499E-02
  12 F= -.17882225E+03 E0= -.17876538E+03  d E =-.185362E-02
       N       E                     dE             d eps       ncg     rms          rms(c)
DAV:   1    -0.178822264289E+03   -0.82008E-05   -0.27192E-03  1100   0.214E-01    0.493E-02
DAV:   2    -0.178822722179E+03   -0.45789E-03   -0.24167E-03  2136   0.461E-01    0.274E-01
DAV:   3    -0.178822253298E+03    0.46888E-03   -0.17490E-03  2136   0.395E-01    0.278E-02
DAV:   4    -0.178822255297E+03   -0.19988E-05   -0.11705E-04  1632   0.917E-02    0.224E-02
DAV:   5    -0.178822255945E+03   -0.64748E-06   -0.39354E-05  1112   0.794E-02
  13 F= -.17882226E+03 E0= -.17876542E+03  d E =-.185583E-02
       N       E                     dE             d eps       ncg     rms          rms(c)
DAV:   1    -0.178823498200E+03   -0.12429E-02   -0.22111E-01  1088   0.185E+00    0.384E-01
DAV:   2    -0.178853818535E+03   -0.30320E-01   -0.14896E-01  2160   0.369E+00    0.225E+00
DAV:   3    -0.178822983107E+03    0.30835E-01   -0.10877E-01  2160   0.316E+00    0.186E-01
DAV:   4    -0.178823297015E+03   -0.31391E-03   -0.71393E-03  1776   0.690E-01    0.187E-01
DAV:   5    -0.178823247531E+03    0.49485E-04   -0.23551E-03  1752   0.544E-01    0.153E-01
DAV:   6    -0.178823060233E+03    0.18730E-03   -0.18122E-03  1888   0.390E-01    0.734E-02
DAV:   7    -0.178823029381E+03    0.30852E-04   -0.41460E-04  2096   0.174E-01    0.489E-02
DAV:   8    -0.178823010768E+03    0.18613E-04   -0.19991E-04  2008   0.122E-01    0.304E-02
DAV:   9    -0.178823017315E+03   -0.65474E-05   -0.85372E-05  1616   0.991E-02
  14 F= -.17882302E+03 E0= -.17876648E+03  d E =-.761371E-03
       N       E                     dE             d eps       ncg     rms          rms(c)
DAV:   1    -0.178823039005E+03   -0.28237E-04   -0.67554E-03  1088   0.337E-01    0.700E-02
DAV:   2    -0.178824068227E+03   -0.10292E-02   -0.50904E-03  2160   0.680E-01    0.412E-01
DAV:   3    -0.178823027653E+03    0.10406E-02   -0.36269E-03  2152   0.576E-01    0.364E-02
DAV:   4    -0.178823034626E+03   -0.69734E-05   -0.23872E-04  1752   0.125E-01    0.298E-02
DAV:   5    -0.178823035819E+03   -0.11927E-05   -0.66915E-05  1336   0.959E-02
  15 F= -.17882304E+03 E0= -.17876655E+03  d E =-.779874E-03
       N       E                     dE             d eps       ncg     rms          rms(c)
DAV:   1    -0.178823978302E+03   -0.94368E-03   -0.10633E-01  1160   0.158E+00    0.408E-01
DAV:   2    -0.178857348490E+03   -0.33370E-01   -0.16300E-01  2160   0.384E+00    0.235E+00
DAV:   3    -0.178823114010E+03    0.34234E-01   -0.12277E-01  2160   0.330E+00    0.192E-01
DAV:   4    -0.178823546616E+03   -0.43261E-03   -0.80348E-03  1784   0.749E-01    0.224E-01
DAV:   5    -0.178823415700E+03    0.13092E-03   -0.26243E-03  1784   0.586E-01    0.144E-01
DAV:   6    -0.178823236829E+03    0.17887E-03   -0.16097E-03  1904   0.328E-01    0.653E-02
DAV:   7    -0.178823238335E+03   -0.15062E-05   -0.40134E-04  2064   0.162E-01    0.558E-02
DAV:   8    -0.178823201223E+03    0.37112E-04   -0.22303E-04  1904   0.119E-01    0.186E-02
DAV:   9    -0.178823207677E+03   -0.64543E-05   -0.62331E-05  1424   0.863E-02
  16 F= -.17882321E+03 E0= -.17876661E+03  d E =-.171858E-03
       N       E                     dE             d eps       ncg     rms          rms(c)
DAV:   1    -0.178823277269E+03   -0.76046E-04   -0.77870E-03  1120   0.431E-01    0.113E-01
DAV:   2    -0.178825972676E+03   -0.26954E-02   -0.13201E-02  2144   0.110E+00    0.663E-01
DAV:   3    -0.178823221500E+03    0.27512E-02   -0.10013E-02  2144   0.949E-01    0.556E-02
DAV:   4    -0.178823244862E+03   -0.23361E-04   -0.57317E-04  1728   0.201E-01    0.504E-02
DAV:   5    -0.178823247048E+03   -0.21868E-05   -0.18021E-04  1680   0.148E-01    0.394E-02
DAV:   6    -0.178823233219E+03    0.13830E-04   -0.10580E-04  1496   0.892E-02    0.163E-02
DAV:   7    -0.178823232463E+03    0.75536E-06   -0.11591E-05   624   0.389E-02
  17 F= -.17882323E+03 E0= -.17876667E+03  d E =-.196644E-03
       N       E                     dE             d eps       ncg     rms          rms(c)
DAV:   1    -0.178823529582E+03   -0.29636E-03   -0.63823E-02  1088   0.102E+00    0.216E-01
DAV:   2    -0.178832673555E+03   -0.91440E-02   -0.49659E-02  2144   0.208E+00    0.120E+00
DAV:   3    -0.178823453372E+03    0.92202E-02   -0.35317E-02  2144   0.177E+00    0.137E-01
DAV:   4    -0.178823437785E+03    0.15587E-04   -0.22347E-03  1816   0.387E-01    0.776E-02
DAV:   5    -0.178823491675E+03   -0.53891E-04   -0.71243E-04  1792   0.289E-01    0.113E-01
DAV:   6    -0.178823400534E+03    0.91141E-04   -0.56373E-04  1832   0.228E-01    0.333E-02
DAV:   7    -0.178823407871E+03   -0.73364E-05   -0.16424E-04  1880   0.993E-02    0.389E-02
DAV:   8    -0.178823392262E+03    0.15609E-04   -0.10688E-04  1544   0.781E-02    0.143E-02
DAV:   9    -0.178823394580E+03   -0.23174E-05   -0.18452E-05   724   0.548E-02
  18 F= -.17882339E+03 E0= -.17876686E+03  d E =-.162116E-03
       N       E                     dE             d eps       ncg     rms          rms(c)
DAV:   1    -0.178823398604E+03   -0.63420E-05   -0.16088E-03  1088   0.165E-01    0.324E-02
DAV:   2    -0.178823605879E+03   -0.20728E-03   -0.11928E-03  2176   0.318E-01    0.178E-01
DAV:   3    -0.178823396012E+03    0.20987E-03   -0.83143E-04  2176   0.269E-01    0.230E-02
DAV:   4    -0.178823393316E+03    0.26957E-05   -0.38039E-05  1072   0.590E-02
  19 F= -.17882339E+03 E0= -.17876686E+03  d E =-.160853E-03
       N       E                     dE             d eps       ncg     rms          rms(c)
DAV:   1    -0.178823482627E+03   -0.86615E-04   -0.90143E-03  1088   0.420E-01    0.109E-01
DAV:   2    -0.178826260726E+03   -0.27781E-02   -0.12836E-02  2136   0.111E+00    0.675E-01
DAV:   3    -0.178823415703E+03    0.28450E-02   -0.94846E-03  2136   0.952E-01    0.459E-02
DAV:   4    -0.178823449633E+03   -0.33930E-04   -0.54179E-04  1752   0.191E-01    0.532E-02
DAV:   5    -0.178823437769E+03    0.11864E-04   -0.13533E-04  1608   0.136E-01    0.317E-02
DAV:   6    -0.178823432157E+03    0.56115E-05   -0.10424E-04  1544   0.923E-02    0.238E-02
DAV:   7    -0.178823427173E+03    0.49844E-05   -0.17688E-05   784   0.543E-02
  20 F= -.17882343E+03 E0= -.17876690E+03  d E =-.338569E-04
