 vasp.5.4.4.18Apr17-6-g9f103f2a35 (build Jul 11 2019 11:52:51) complex          
  
 executed on             LinuxIFC date 2023.11.29  16:45:26
 running on    4 total cores
 distrk:  each k-point on    4 cores,    1 groups
 distr:  one band on NCORES_PER_BAND=   1 cores,    4 groups


--------------------------------------------------------------------------------------------------------


 INCAR:
 POTCAR:    PAW_PBE V 08Apr2002                   
 POTCAR:    PAW_PBE Fe 06Sep2000                  
 POTCAR:    PAW_PBE V 08Apr2002                   
   VRHFIN =V: p6 d4 s1                                                          
   LEXCH  = PE                                                                  
   EATOM  =   170.8679 eV,   12.5584 Ry                                         
                                                                                
   TITEL  = PAW_PBE V 08Apr2002                                                 
   LULTRA =        F    use ultrasoft PP ?                                      
   IUNSCR =        1    unscreen: 0-lin 1-nonlin 2-no                           
   RPACOR =    2.000    partial core radius                                     
   POMASS =   50.941; ZVAL   =    5.000    mass and valenz                      
   RCORE  =    2.700    outmost cutoff radius                                   
   RWIGS  =    2.500; RWIGS  =    1.323    wigner-seitz radius (au A)           
   ENMAX  =  192.543; ENMIN  =  144.408 eV                                      
   RCLOC  =    1.779    cutoff for local pot                                    
   LCOR   =        T    correct aug charges                                     
   LPAW   =        T    paw PP                                                  
   EAUG   =  358.662                                                            
   DEXC   =    0.000                                                            
   RMAX   =    2.768    core radius for proj-oper                               
   RAUG   =    1.300    factor for augmentation sphere                          
   RDEP   =    2.762    radius for radial grids                                 
   RDEPT  =    2.240    core radius for aug-charge                              
                                                                                
   Atomic configuration                                                         
    9 entries                                                                   
     n  l   j            E        occ.                                          
     1  0  0.50     -5360.7193   2.0000                                         
     2  0  0.50      -598.4546   2.0000                                         
     2  1  1.50      -499.0155   6.0000                                         
     3  0  0.50       -66.5711   2.0000                                         
     3  1  1.50       -40.5282   6.0000                                         
     3  2  2.50        -2.4291   4.0000                                         
     4  0  0.50        -3.8743   1.0000                                         
     4  1  0.50        -2.7212   0.0000                                         
     4  3  2.50        -1.3606   0.0000                                         
   Description                                                                  
     l       E           TYP  RCUT    TYP  RCUT                                 
     2     -2.4290901     23  2.700                                             
     2     -3.7896727     23  2.700                                             
     0     -3.8742752     23  2.700                                             
     0     27.2116520     23  2.700                                             
     1     -2.7211652     23  2.700                                             
     1     27.2116520     23  2.700                                             
  local pseudopotential read in
  partial core-charges read in
  partial kinetic energy density read in
  atomic valenz-charges read in
  non local Contribution for L=           2  read in
    real space projection operators read in
  non local Contribution for L=           2  read in
    real space projection operators read in
  non local Contribution for L=           0  read in
    real space projection operators read in
  non local Contribution for L=           0  read in
    real space projection operators read in
  non local Contribution for L=           1  read in
    real space projection operators read in
  non local Contribution for L=           1  read in
    real space projection operators read in
    PAW grid and wavefunctions read in
 
   number of l-projection  operators is LMAX  =           6
   number of lm-projection operators is LMMAX =          18
 
 POTCAR:    PAW_PBE Fe 06Sep2000                  
   VRHFIN =Fe:  d7 s1                                                           
   LEXCH  = PE                                                                  
   EATOM  =   594.3153 eV,   43.6809 Ry                                         
                                                                                
   TITEL  = PAW_PBE Fe 06Sep2000                                                
   LULTRA =        F    use ultrasoft PP ?                                      
   IUNSCR =        1    unscreen: 0-lin 1-nonlin 2-no                           
   RPACOR =    2.000    partial core radius                                     
   POMASS =   55.847; ZVAL   =    8.000    mass and valenz                      
   RCORE  =    2.300    outmost cutoff radius                                   
   RWIGS  =    2.460; RWIGS  =    1.302    wigner-seitz radius (au A)           
   ENMAX  =  267.882; ENMIN  =  200.911 eV                                      
   RCLOC  =    1.701    cutoff for local pot                                    
   LCOR   =        T    correct aug charges                                     
   LPAW   =        T    paw PP                                                  
   EAUG   =  511.368                                                            
   DEXC   =    0.000                                                            
   RMAX   =    2.356    core radius for proj-oper                               
   RAUG   =    1.300    factor for augmentation sphere                          
   RDEP   =    2.442    radius for radial grids                                 
   RDEPT  =    1.890    core radius for aug-charge                              
                                                                                
   Atomic configuration                                                         
    9 entries                                                                   
     n  l   j            E        occ.                                          
     1  0  0.50     -6993.8440   2.0000                                         
     2  0  0.50      -814.6047   2.0000                                         
     2  1  1.50      -693.3689   6.0000                                         
     3  0  0.50       -89.4732   2.0000                                         
     3  1  1.50       -55.6373   6.0000                                         
     3  2  2.50        -3.8151   7.0000                                         
     4  0  0.50        -4.2551   1.0000                                         
     4  1  1.50        -3.4015   0.0000                                         
     4  3  2.50        -1.3606   0.0000                                         
   Description                                                                  
     l       E           TYP  RCUT    TYP  RCUT                                 
     2     -3.8151135     23  2.300                                             
     2     -5.1756961     23  2.300                                             
     0     -4.2550963     23  2.300                                             
     0      7.2035603     23  2.300                                             
     1     -2.7211652     23  2.300                                             
     1     18.4316424     23  2.300                                             
  local pseudopotential read in
  partial core-charges read in
  partial kinetic energy density read in
  atomic valenz-charges read in
  non local Contribution for L=           2  read in
    real space projection operators read in
  non local Contribution for L=           2  read in
    real space projection operators read in
  non local Contribution for L=           0  read in
    real space projection operators read in
  non local Contribution for L=           0  read in
    real space projection operators read in
  non local Contribution for L=           1  read in
    real space projection operators read in
  non local Contribution for L=           1  read in
    real space projection operators read in
    PAW grid and wavefunctions read in
 
   number of l-projection  operators is LMAX  =           6
   number of lm-projection operators is LMMAX =          18
 

 ----------------------------------------------------------------------------- 
|                                                                             |
|  ADVICE TO THIS USER RUNNING 'VASP/VAMP'   (HEAR YOUR MASTER'S VOICE ...):  |
|                                                                             |
|      You have a (more or less) 'large supercell' and for larger cells       |
|      it might be more efficient to use real space projection opertators     |
|      So try LREAL= Auto  in the INCAR   file.                               |
|      Mind:          For very  accurate calculation you might also keep the  |
|      reciprocal projection scheme          (i.e. LREAL=.FALSE.)             |
|                                                                             |
 ----------------------------------------------------------------------------- 

  PAW_PBE V 08Apr2002                   :
 energy of atom  1       EATOM= -170.8679
 kinetic energy error for atom=    0.0066 (will be added to EATOM!!)
  PAW_PBE Fe 06Sep2000                  :
 energy of atom  2       EATOM= -594.3153
 kinetic energy error for atom=    0.0346 (will be added to EATOM!!)
 
 
 POSCAR: EA0     6.374  9.711  4.138 90.00 90.00 
  positions in direct lattice
  No initial velocities read in
 exchange correlation table for  LEXCH =        8
   RHO(1)=    0.500       N(1)  =     2000
   RHO(2)=  100.500       N(2)  =     4000
 


--------------------------------------------------------------------------------------------------------


 ion  position               nearest neighbor table
   1  0.194  0.193  0.792-  19 2.51   6 2.54   6 2.54  15 2.56   3 2.56   3 2.57  13 2.57  11 2.60
                             9 2.90   9 2.90  20 2.92   5 2.93   5 2.93  12 2.99
   2  0.201  0.696  0.791-  20 2.49  14 2.50  12 2.51  18 2.51  18 2.51   4 2.58   4 2.58  16 2.61
                            10 2.88  10 2.88  13 2.89   8 2.90   8 2.90  19 2.98
   3  0.099  0.038  0.292-  18 2.48  12 2.54  12 2.54   9 2.55   5 2.55   1 2.56   1 2.57   7 2.61
                            13 2.92  13 2.92   8 2.92  15 2.93  15 2.93   6 2.99
   4  0.092  0.540  0.291-   8 2.48   6 2.52  19 2.52  19 2.52  17 2.55  10 2.57   2 2.58   2 2.58
                            20 2.89  20 2.89  16 2.92  16 2.92   9 2.94  18 2.96
   5  0.497  0.141  0.292-   7 2.50   6 2.51  11 2.55  11 2.55   3 2.55  13 2.56  13 2.56   9 2.56
                            15 2.92  15 2.92   1 2.93   1 2.93  18 2.97  17 2.98
   6  0.297  0.342  0.291-   5 2.51   4 2.52  20 2.52  20 2.53  17 2.53   1 2.54   1 2.54   9 2.56
                            19 2.93  19 2.93  11 2.94  11 2.94  10 2.97   3 2.99
   7  0.689  0.938  0.292-   5 2.50  18 2.52   8 2.53  14 2.54  14 2.54  15 2.55  15 2.55   3 2.61
                            13 2.88  13 2.88  10 2.91  12 2.92  12 2.92   9 3.00
   8  0.902  0.742  0.291-   4 2.48  18 2.52  12 2.53  12 2.53   7 2.53  16 2.55  16 2.55  10 2.61
                             2 2.90   2 2.90   3 2.92  14 2.95  14 2.95  17 2.96
   9  0.897  0.242  0.292-   3 2.55  17 2.55  19 2.55  19 2.56   5 2.56   6 2.56  15 2.56  15 2.56
                            11 2.89  11 2.89   1 2.90   1 2.90   4 2.94   7 3.00
  10  0.492  0.644  0.291-  18 2.45  17 2.51  14 2.52  14 2.52   4 2.57  20 2.57  20 2.57   8 2.61
                             2 2.88   2 2.88   7 2.91  16 2.93  16 2.93   6 2.97
  11  0.602  0.291  0.792-  15 2.51  19 2.53   5 2.55  17 2.55   5 2.55  17 2.55  20 2.57   1 2.60
                             9 2.89   9 2.89   6 2.94   6 2.94  16 2.96  13 3.00
  12  0.991  0.891  0.792-  15 2.47   2 2.51   8 2.53   8 2.53   3 2.54   3 2.54  14 2.55  13 2.60
                             7 2.92   7 2.92  16 2.94  18 2.94  18 2.94   1 2.99
  13  0.398  0.988  0.792-  14 2.47  18 2.54  18 2.54  15 2.55   5 2.56   5 2.56   1 2.57  12 2.60
                             7 2.88   7 2.88   2 2.89   3 2.92   3 2.92  11 3.00
  14  0.593  0.789  0.791-  13 2.47  16 2.48   2 2.50  10 2.52  10 2.52   7 2.54   7 2.54  12 2.55
                            18 2.90  18 2.91   8 2.95   8 2.95  15 2.96  20 2.96
  15  0.797  0.088  0.792-  12 2.47  11 2.51  13 2.55   7 2.55   7 2.55   1 2.56   9 2.56   9 2.56
                             5 2.92   5 2.92   3 2.93   3 2.93  14 2.96  19 3.01
  16  0.793  0.593  0.791-  14 2.48  19 2.51  17 2.54  17 2.54   8 2.55   8 2.55  20 2.61   2 2.61
                             4 2.92   4 2.92  10 2.93  10 2.93  12 2.94  11 2.96
  17  0.692  0.444  0.291-  10 2.51   6 2.53  16 2.54  16 2.54   4 2.55   9 2.55  11 2.55  11 2.55
                            19 2.93  19 2.93  20 2.93  20 2.93   8 2.96   5 2.98
  18  0.296  0.840  0.292-  10 2.45   3 2.48   2 2.51   2 2.51   8 2.52   7 2.52  13 2.54  13 2.54
                            14 2.90  14 2.91  12 2.94  12 2.94   4 2.96   5 2.97
  19  0.996  0.394  0.791-  20 2.49  16 2.51   1 2.51   4 2.52   4 2.52  11 2.53   9 2.55   9 2.56
                             6 2.93   6 2.93  17 2.93  17 2.93   2 2.98  15 3.01
  20  0.386  0.490  0.791-  19 2.49   2 2.49   6 2.52   6 2.53  11 2.57  10 2.57  10 2.57  16 2.61
                             4 2.89   4 2.89   1 2.92  17 2.93  17 2.93  14 2.96
 
  LATTYP: Found a triclinic cell.
 ALAT       =     6.3743990651
 B/A-ratio  =     1.5233628247
 C/A-ratio  =     0.6491667748
 COS(alpha) =     0.0000110394
 COS(beta)  =     0.0000721911
 COS(gamma) =     0.1813660932
  
  Lattice vectors:
  
 A1 = (   6.3742770000,   0.0394440000,  -0.0005820000)
 A2 = (   1.8202170000,  -9.5383990000,   0.0017550000)
 A3 = (  -0.0000740000,  -0.0008220000,  -4.1380480000)


Analysis of symmetry for initial positions (statically):
=====================================================================
 Subroutine PRICEL returns:
 Original cell was already a primitive cell.
 

 Routine SETGRP: Setting up the symmetry group for a 
 triclinic supercell.


 Subroutine GETGRP returns: Found  1 space group operations
 (whereof  1 operations were pure point group operations)
 out of a pool of  2 trial point group operations.


The static configuration has the point symmetry C_1 .


Analysis of symmetry for dynamics (positions and initial velocities):
=====================================================================
 Subroutine PRICEL returns:
 Original cell was already a primitive cell.
 

 Routine SETGRP: Setting up the symmetry group for a 
 triclinic supercell.


 Subroutine GETGRP returns: Found  1 space group operations
 (whereof  1 operations were pure point group operations)
 out of a pool of  2 trial point group operations.


The dynamic configuration has the point symmetry C_1 .


 Subroutine INISYM returns: Found  1 space group operations
 (whereof  1 operations are pure point group operations),
 and found     1 'primitive' translations

 
 
 KPOINTS: EA                                      

Automatic generation of k-mesh.
Space group operators:
 irot       det(A)        alpha          n_x          n_y          n_z        tau_x        tau_y        tau_z
    1     1.000000     0.000000     1.000000     0.000000     0.000000     0.000000     0.000000     0.000000
 
 Subroutine IBZKPT returns following result:
 ===========================================
 
 Found      8 irreducible k-points:
 
 Following reciprocal coordinates:
            Coordinates               Weight
  0.000000  0.000000  0.000000      1.000000
  0.500000  0.000000 -0.000000      1.000000
 -0.000000  0.500000  0.000000      1.000000
  0.500000  0.500000 -0.000000      1.000000
  0.000000  0.000000  0.333333      2.000000
  0.500000 -0.000000  0.333333      2.000000
  0.000000  0.500000  0.333333      2.000000
  0.500000  0.500000  0.333333      2.000000
 
 Following cartesian coordinates:
            Coordinates               Weight
  0.000000  0.000000  0.000000      1.000000
  0.078348  0.014951 -0.000004      1.000000
 -0.000324  0.052358 -0.000010      1.000000
  0.078024  0.067309 -0.000015      1.000000
  0.000007  0.000016  0.080553      2.000000
  0.078355  0.014967  0.080549      2.000000
 -0.000317  0.052374  0.080543      2.000000
  0.078031  0.067325  0.080539      2.000000
 


--------------------------------------------------------------------------------------------------------




 Dimension of arrays:
   k-points           NKPTS =      8   k-points in BZ     NKDIM =      8   number of bands    NBANDS=     68
   number of dos      NEDOS =    301   number of ions     NIONS =     20
   non local maximal  LDIM  =      6   non local SUM 2l+1 LMDIM =     18
   total plane-waves  NPLWV =  20160
   max r-space proj   IRMAX =      1   max aug-charges    IRDMAX=   5053
   dimension x,y,z NGX =    28 NGY =   40 NGZ =   18
   dimension x,y,z NGXF=    56 NGYF=   80 NGZF=   36
   support grid    NGXF=    56 NGYF=   80 NGZF=   36
   ions per type =              17   3
   NGX,Y,Z   is equivalent  to a cutoff of   7.30,  6.85,  7.23 a.u.
   NGXF,Y,Z  is equivalent  to a cutoff of  14.60, 13.70, 14.46 a.u.

 SYSTEM =  unknown system                          
 POSCAR =  EA0     6.374  9.711  4.138 90.00 90.00 

 Startparameter for this run:
   NWRITE =      2    write-flag & timer
   PREC   = normal    normal or accurate (medium, high low for compatibility)
   ISTART =      0    job   : 0-new  1-cont  2-samecut
   ICHARG =      2    charge: 1-file 2-atom 10-const
   ISPIN  =      1    spin polarized calculation?
   LNONCOLLINEAR =      F non collinear calculations
   LSORBIT =      F    spin-orbit coupling
   INIWAV =      1    electr: 0-lowe 1-rand  2-diag
   LASPH  =      F    aspherical Exc in radial PAW
   METAGGA=      F    non-selfconsistent MetaGGA calc.

 Electronic Relaxation 1
   ENCUT  =  267.9 eV  19.69 Ry    4.44 a.u.   8.51 12.96  5.52*2*pi/ulx,y,z
   ENINI  =  267.9     initial cutoff
   ENAUG  =  511.4 eV  augmentation charge cutoff
   NELM   =     60;   NELMIN=  2; NELMDL= -5     # of ELM steps 
   EDIFF  = 0.1E-04   stopping-criterion for ELM
   LREAL  =      F    real-space projection
   NLSPLINE    = F    spline interpolate recip. space projectors
   LCOMPAT=      F    compatible to vasp.4.4
   GGA_COMPAT  = T    GGA compatible to vasp.4.4-vasp.4.6
   LMAXPAW     = -100 max onsite density
   LMAXMIX     =    2 max onsite mixed and CHGCAR
   VOSKOWN=      0    Vosko Wilk Nusair interpolation
   ROPT   =    0.00000   0.00000
 Ionic relaxation
   EDIFFG = -.1E-01   stopping-criterion for IOM
   NSW    =    500    number of steps for IOM
   NBLOCK =      1;   KBLOCK =    500    inner block; outer block 
   IBRION =      2    ionic relax: 0-MD 1-quasi-New 2-CG
   NFREE  =      1    steps in history (QN), initial steepest desc. (CG)
   ISIF   =      3    stress and relaxation
   IWAVPR =     11    prediction:  0-non 1-charg 2-wave 3-comb
   ISYM   =      2    0-nonsym 1-usesym 2-fastsym
   LCORR  =      T    Harris-Foulkes like correction to forces

   POTIM  = 0.5000    time-step for ionic-motion
   TEIN   =    0.0    initial temperature
   TEBEG  =    0.0;   TEEND  =   0.0 temperature during run
   SMASS  =  -3.00    Nose mass-parameter (am)
   estimated Nose-frequenzy (Omega)   =  0.10E-29 period in steps =****** mass=  -0.929E-27a.u.
   SCALEE = 1.0000    scale energy and forces
   NPACO  =    256;   APACO  = 16.0  distance and # of slots for P.C.
   PSTRESS=    0.0 pullay stress

  Mass of Ions in am
   POMASS =  50.94 55.85
  Ionic Valenz
   ZVAL   =   5.00  8.00
  Atomic Wigner-Seitz radii
   RWIGS  =  -1.00 -1.00
  virtual crystal weights 
   VCA    =   1.00  1.00
   NELECT =     109.0000    total number of electrons
   NUPDOWN=      -1.0000    fix difference up-down

 DOS related values:
   EMIN   =  10.00;   EMAX   =-10.00  energy-range for DOS
   EFERMI =   0.00
   ISMEAR =     0;   SIGMA  =   0.10  broadening in eV -4-tet -1-fermi 0-gaus

 Electronic relaxation 2 (details)
   IALGO  =     38    algorithm
   LDIAG  =      T    sub-space diagonalisation (order eigenvalues)
   LSUBROT=      F    optimize rotation matrix (better conditioning)
   TURBO    =      0    0=normal 1=particle mesh
   IRESTART =      0    0=no restart 2=restart with 2 vectors
   NREBOOT  =      0    no. of reboots
   NMIN     =      0    reboot dimension
   EREF     =   0.00    reference energy to select bands
   IMIX   =      4    mixing-type and parameters
     AMIX     =   0.40;   BMIX     =  1.00
     AMIX_MAG =   1.60;   BMIX_MAG =  1.00
     AMIN     =   0.10
     WC   =   100.;   INIMIX=   1;  MIXPRE=   1;  MAXMIX= -45

 Intra band minimization:
   WEIMIN = 0.0010     energy-eigenvalue tresh-hold
   EBREAK =  0.37E-07  absolut break condition
   DEPER  =   0.30     relativ break condition  

   TIME   =   0.40     timestep for ELM

  volume/ion in A,a.u.               =      12.59        84.99
  Fermi-wavevector in a.u.,A,eV,Ry     =   1.238261  2.339974 20.861678  1.533290
  Thomas-Fermi vector in A             =   2.372794
 
 Write flags
   LWAVE        =      F    write WAVECAR
   LDOWNSAMPLE  =      F    k-point downsampling of WAVECAR
   LCHARG       =      F    write CHGCAR
   LVTOT        =      F    write LOCPOT, total local potential
   LVHAR        =      F    write LOCPOT, Hartree potential only
   LELF         =      F    write electronic localiz. function (ELF)
   LORBIT       =      0    0 simple, 1 ext, 2 COOP (PROOUT), +10 PAW based schemes


 Dipole corrections
   LMONO  =      F    monopole corrections only (constant potential shift)
   LDIPOL =      F    correct potential (dipole corrections)
   IDIPOL =      0    1-x, 2-y, 3-z, 4-all directions 
   EPSILON=  1.0000000 bulk dielectric constant

 Exchange correlation treatment:
   GGA     =    --    GGA type
   LEXCH   =     8    internal setting for exchange type
   VOSKOWN=      0    Vosko Wilk Nusair interpolation
   LHFCALC =     F    Hartree Fock is set to
   LHFONE  =     F    Hartree Fock one center treatment
   AEXX    =    0.0000 exact exchange contribution

 Linear response parameters
   LEPSILON=     F    determine dielectric tensor
   LRPA    =     F    only Hartree local field effects (RPA)
   LNABLA  =     F    use nabla operator in PAW spheres
   LVEL    =     F    velocity operator in full k-point grid
   LINTERFAST=   F  fast interpolation
   KINTER  =     0    interpolate to denser k-point grid
   CSHIFT  =0.1000    complex shift for real part using Kramers Kronig
   OMEGAMAX=  -1.0    maximum frequency
   DEG_THRESHOLD= 0.2000000E-02 threshold for treating states as degnerate
   RTIME   =   -0.100 relaxation time in fs
  (WPLASMAI=    0.000 imaginary part of plasma frequency in eV, 0.658/RTIME)
   DFIELD  = 0.0000000 0.0000000 0.0000000 field for delta impulse in time
 
 Orbital magnetization related:
   ORBITALMAG=     F  switch on orbital magnetization
   LCHIMAG   =     F  perturbation theory with respect to B field
   DQ        =  0.001000  dq finite difference perturbation B field
   LLRAUG    =     F  two centre corrections for induced B field



--------------------------------------------------------------------------------------------------------


 conjugate gradient relaxation of ions
 charge density and potential will be updated during run
 non-spin polarized calculation
 Variant of blocked Davidson
 Davidson routine will perform the subspace rotation
 perform sub-space diagonalisation
    after iterative eigenvector-optimisation
 modified Broyden-mixing scheme, WC =      100.0
 initial mixing is a Kerker type mixing with AMIX =  0.4000 and BMIX =      1.0000
 Hartree-type preconditioning will be used
 using additional bands           13
 reciprocal scheme for non local part
 use partial core corrections
 calculate Harris-corrections to forces 
   (improved forces if not selfconsistent)
 use gradient corrections 
 use of overlap-Matrix (Vanderbilt PP)
 Gauss-broadening in eV      SIGMA  =   0.10


--------------------------------------------------------------------------------------------------------


  energy-cutoff  :      267.88
  volume of cell :      251.89
      direct lattice vectors                 reciprocal lattice vectors
     6.374277000  0.039444000 -0.000582000     0.156695501  0.029902272 -0.000008742
    -1.820217000  9.538399000 -0.001755000    -0.000647982  0.104715738 -0.000020790
     0.000074000  0.000822000  4.138048000     0.000021764  0.000048617  0.241659826

  length of vectors
     6.374399065  9.710522565  4.138048082     0.159523121  0.104717745  0.241659832


 
 k-points in units of 2pi/SCALE and weight: EA                                      
   0.00000000  0.00000000  0.00000000       0.083
   0.07834775  0.01495114 -0.00000437       0.083
  -0.00032399  0.05235787 -0.00001039       0.083
   0.07802376  0.06730901 -0.00001477       0.083
   0.00000725  0.00001621  0.08055328       0.167
   0.07835501  0.01496734  0.08054890       0.167
  -0.00031674  0.05237407  0.08054288       0.167
   0.07803101  0.06732521  0.08053851       0.167
 
 k-points in reciprocal lattice and weights: EA                                      
   0.00000000  0.00000000  0.00000000       0.083
   0.50000000  0.00000000 -0.00000000       0.083
  -0.00000000  0.50000000  0.00000000       0.083
   0.50000000  0.50000000 -0.00000000       0.083
   0.00000000  0.00000000  0.33333333       0.167
   0.50000000 -0.00000000  0.33333333       0.167
   0.00000000  0.50000000  0.33333333       0.167
   0.50000000  0.50000000  0.33333333       0.167
 
 position of ions in fractional coordinates (direct lattice) 
   0.19445100  0.19280800  0.79167700
   0.20092100  0.69554600  0.79119400
   0.09859300  0.03809700  0.29177600
   0.09154800  0.53993600  0.29114500
   0.49695400  0.14101300  0.29167600
   0.29728400  0.34182200  0.29141600
   0.68937100  0.93837900  0.29167300
   0.90201000  0.74193700  0.29124300
   0.89683000  0.24175400  0.29161500
   0.49187200  0.64415400  0.29113600
   0.60219800  0.29125400  0.79151300
   0.99115300  0.89053000  0.79161100
   0.39842400  0.98788400  0.79173200
   0.59271800  0.78917500  0.79135000
   0.79652800  0.08831600  0.79169500
   0.79277500  0.59268000  0.79107500
   0.69220500  0.44428300  0.29121900
   0.29581600  0.83963600  0.29150200
   0.99588400  0.39398100  0.79133600
   0.38570300  0.49018900  0.79117000
 
 position of ions in cartesian coordinates  (Angst):
   0.88859072  1.84740032  3.27554588
   0.01474000  6.64297076  3.27266113
   0.55913588  0.36751313  1.20725885
  -0.39922683  5.15397534  1.20377112
   2.91106978  1.36487987  1.20643258
   1.27280191  3.27240024  1.20512048
   2.68620989  8.97806462  1.20490881
   4.39919681  7.11270942  1.20335044
   5.27661968  2.34156038  1.20577063
   1.96284986  6.16383858  1.20331798
   3.30848995  2.80250058  3.27445716
   4.69698451  8.53397620  3.27358458
   0.74156028  9.43919800  3.27425940
   2.34173752  7.55149569  3.27291432
   4.91659441  0.87446227  3.27545334
   3.97461978  5.68513880  3.27200477
   3.60363649  4.26529124  1.20389562
   0.35731498  8.02069096  1.20460354
   5.63096812  3.79788010  3.27331531
   1.56638596  4.69148228  3.27281468
 


--------------------------------------------------------------------------------------------------------


 k-point  1 :   0.0000 0.0000 0.0000  plane waves:    2503
 k-point  2 :   0.5000 0.0000-0.0000  plane waves:    2522
 k-point  3 :  -0.0000 0.5000 0.0000  plane waves:    2522
 k-point  4 :   0.5000 0.5000-0.0000  plane waves:    2526
 k-point  5 :   0.0000 0.0000 0.3333  plane waves:    2515
 k-point  6 :   0.5000-0.0000 0.3333  plane waves:    2488
 k-point  7 :   0.0000 0.5000 0.3333  plane waves:    2514
 k-point  8 :   0.5000 0.5000 0.3333  plane waves:    2484

 maximum and minimum number of plane-waves per node :      2526     2484

 maximum number of plane-waves:      2526
 maximum index in each direction: 
   IXMAX=    8   IYMAX=   12   IZMAX=    5
   IXMIN=   -9   IYMIN=  -13   IZMIN=   -5


 serial   3D FFT for wavefunctions
 parallel 3D FFT for charge:
    minimum data exchange during FFTs selected (reduces bandwidth)


 total amount of memory used by VASP MPI-rank0    47914. kBytes
=======================================================================

   base      :      30000. kBytes
   nonl-proj :       6633. kBytes
   fftplans  :       1515. kBytes
   grid      :       3171. kBytes
   one-center:        311. kBytes
   wavefun   :       6284. kBytes
 
     INWAV:  cpu time    0.0001: real time    0.0001
 Broyden mixing: mesh for mixing (old mesh)
   NGX = 17   NGY = 25   NGZ = 11
  (NGX  = 56   NGY  = 80   NGZ  = 36)
  gives a total of   4675 points

 initial charge density was supplied:
 charge density of overlapping atoms calculated
 number of electron     109.0000000 magnetization 
 keeping initial charge density in first step


--------------------------------------------------------------------------------------------------------


 Maximum index for augmentation-charges         1192 (set IRDMAX)


--------------------------------------------------------------------------------------------------------


 First call to EWALD:  gamma=   0.281
 Maximum number of real-space cells 3x 2x 4
 Maximum number of reciprocal cells 3x 4x 2

    FEWALD:  cpu time    0.0025: real time    0.0025


--------------------------------------- Iteration      1(   1)  ---------------------------------------


    POTLOK:  cpu time    0.0367: real time    0.0367
    SETDIJ:  cpu time    0.0170: real time    0.0171
     EDDAV:  cpu time    1.4498: real time    1.4517
       DOS:  cpu time    0.0010: real time    0.0010
    --------------------------------------------
      LOOP:  cpu time    1.5044: real time    1.5064

 eigenvalue-minimisations  :  1088
 total energy-change (2. order) : 0.6331929E+03  (-0.2254209E+04)
 number of electron     109.0000000 magnetization 
 augmentation part      109.0000000 magnetization 

 Free energy of the ion-electron system (eV)
  ---------------------------------------------------
  alpha Z        PSCENC =       568.19985339
  Ewald energy   TEWEN  =     -5366.30828633
  -Hartree energ DENC   =      -782.28329448
  -exchange      EXHF   =         0.00000000
  -V(xc)+E(xc)   XCENC  =      -769.73630572
  PAW double counting   =      5171.05454107    -4356.08836938
  entropy T*S    EENTRO =        -0.06230753
  eigenvalues    EBANDS =      1480.93281394
  atomic energy  EATOM  =      4687.48422623
  Solvation  Ediel_sol  =         0.00000000
  ---------------------------------------------------
  free energy    TOTEN  =       633.19287118 eV

  energy without entropy =      633.25517871  energy(sigma->0) =      633.22402494


--------------------------------------------------------------------------------------------------------




--------------------------------------- Iteration      1(   2)  ---------------------------------------


     EDDAV:  cpu time    1.4108: real time    1.6727
       DOS:  cpu time    0.0097: real time    0.0217
    --------------------------------------------
      LOOP:  cpu time    1.4205: real time    1.6944

 eigenvalue-minimisations  :  1088
 total energy-change (2. order) :-0.7118511E+03  (-0.6884342E+03)
 number of electron     109.0000000 magnetization 
 augmentation part      109.0000000 magnetization 

 Free energy of the ion-electron system (eV)
  ---------------------------------------------------
  alpha Z        PSCENC =       568.19985339
  Ewald energy   TEWEN  =     -5366.30828633
  -Hartree energ DENC   =      -782.28329448
  -exchange      EXHF   =         0.00000000
  -V(xc)+E(xc)   XCENC  =      -769.73630572
  PAW double counting   =      5171.05454107    -4356.08836938
  entropy T*S    EENTRO =        -0.06710091
  eigenvalues    EBANDS =       769.08646247
  atomic energy  EATOM  =      4687.48422623
  Solvation  Ediel_sol  =         0.00000000
  ---------------------------------------------------
  free energy    TOTEN  =       -78.65827367 eV

  energy without entropy =      -78.59117276  energy(sigma->0) =      -78.62472322


--------------------------------------------------------------------------------------------------------




--------------------------------------- Iteration      1(   3)  ---------------------------------------


     EDDAV:  cpu time    2.6574: real time    2.7578
       DOS:  cpu time    0.0012: real time    0.0012
    --------------------------------------------
      LOOP:  cpu time    2.6585: real time    2.7590

 eigenvalue-minimisations  :  1796
 total energy-change (2. order) :-0.1177796E+03  (-0.1112146E+03)
 number of electron     109.0000000 magnetization 
 augmentation part      109.0000000 magnetization 

 Free energy of the ion-electron system (eV)
  ---------------------------------------------------
  alpha Z        PSCENC =       568.19985339
  Ewald energy   TEWEN  =     -5366.30828633
  -Hartree energ DENC   =      -782.28329448
  -exchange      EXHF   =         0.00000000
  -V(xc)+E(xc)   XCENC  =      -769.73630572
  PAW double counting   =      5171.05454107    -4356.08836938
  entropy T*S    EENTRO =        -0.06307845
  eigenvalues    EBANDS =       651.30284159
  atomic energy  EATOM  =      4687.48422623
  Solvation  Ediel_sol  =         0.00000000
  ---------------------------------------------------
  free energy    TOTEN  =      -196.43787209 eV

  energy without entropy =     -196.37479364  energy(sigma->0) =     -196.40633286


--------------------------------------------------------------------------------------------------------




--------------------------------------- Iteration      1(   4)  ---------------------------------------


     EDDAV:  cpu time    1.9302: real time    2.6450
       DOS:  cpu time    0.0013: real time    0.0013
    --------------------------------------------
      LOOP:  cpu time    1.9316: real time    2.6464

 eigenvalue-minimisations  :  1752
 total energy-change (2. order) :-0.1150579E+02  (-0.1086658E+02)
 number of electron     109.0000000 magnetization 
 augmentation part      109.0000000 magnetization 

 Free energy of the ion-electron system (eV)
  ---------------------------------------------------
  alpha Z        PSCENC =       568.19985339
  Ewald energy   TEWEN  =     -5366.30828633
  -Hartree energ DENC   =      -782.28329448
  -exchange      EXHF   =         0.00000000
  -V(xc)+E(xc)   XCENC  =      -769.73630572
  PAW double counting   =      5171.05454107    -4356.08836938
  entropy T*S    EENTRO =        -0.06943941
  eigenvalues    EBANDS =       639.80341471
  atomic energy  EATOM  =      4687.48422623
  Solvation  Ediel_sol  =         0.00000000
  ---------------------------------------------------
  free energy    TOTEN  =      -207.94365992 eV

  energy without entropy =     -207.87422052  energy(sigma->0) =     -207.90894022


--------------------------------------------------------------------------------------------------------




--------------------------------------- Iteration      1(   5)  ---------------------------------------


     EDDAV:  cpu time    1.9997: real time    2.0031
       DOS:  cpu time    0.0022: real time    0.0022
    CHARGE:  cpu time    0.0507: real time    0.0508
    MIXING:  cpu time    0.0016: real time    0.0016
    --------------------------------------------
      LOOP:  cpu time    2.0542: real time    2.0577

 eigenvalue-minimisations  :  1736
 total energy-change (2. order) :-0.5642465E+00  (-0.5545168E+00)
 number of electron     109.0000127 magnetization 
 augmentation part       33.3816706 magnetization 

 Broyden mixing:
  rms(total) = 0.59393E+01    rms(broyden)= 0.59381E+01
  rms(prec ) = 0.70492E+01
  weight for this iteration     100.00

 Free energy of the ion-electron system (eV)
  ---------------------------------------------------
  alpha Z        PSCENC =       568.19985339
  Ewald energy   TEWEN  =     -5366.30828633
  -Hartree energ DENC   =      -782.28329448
  -exchange      EXHF   =         0.00000000
  -V(xc)+E(xc)   XCENC  =      -769.73630572
  PAW double counting   =      5171.05454107    -4356.08836938
  entropy T*S    EENTRO =        -0.07238961
  eigenvalues    EBANDS =       639.24211840
  atomic energy  EATOM  =      4687.48422623
  Solvation  Ediel_sol  =         0.00000000
  ---------------------------------------------------
  free energy    TOTEN  =      -208.50790644 eV

  energy without entropy =     -208.43551683  energy(sigma->0) =     -208.47171164


--------------------------------------------------------------------------------------------------------




--------------------------------------- Iteration      1(   6)  ---------------------------------------


    POTLOK:  cpu time    0.0312: real time    0.0313
    SETDIJ:  cpu time    0.0170: real time    0.0170
     EDDAV:  cpu time    2.4610: real time    2.6450
       DOS:  cpu time    0.0014: real time    0.0014
    CHARGE:  cpu time    0.0534: real time    0.0535
    MIXING:  cpu time    0.0016: real time    0.0016
    --------------------------------------------
      LOOP:  cpu time    2.5656: real time    2.7499

 eigenvalue-minimisations  :  2008
 total energy-change (2. order) :-0.3169706E+02  (-0.5361623E+02)
 number of electron     109.0000254 magnetization 
 augmentation part       46.1665733 magnetization 

 Broyden mixing:
  rms(total) = 0.92366E+01    rms(broyden)= 0.92357E+01
  rms(prec ) = 0.13156E+02
  weight for this iteration     100.00

 eigenvalues of (default mixing * dielectric matrix)
  average eigenvalue GAMMA=   0.3146
  0.3146

 Free energy of the ion-electron system (eV)
  ---------------------------------------------------
  alpha Z        PSCENC =       568.19985339
  Ewald energy   TEWEN  =     -5366.30828633
  -Hartree energ DENC   =      -575.35071501
  -exchange      EXHF   =         0.00000000
  -V(xc)+E(xc)   XCENC  =      -772.58098975
  PAW double counting   =      6369.97022695    -5536.90707324
  entropy T*S    EENTRO =        -0.12864286
  eigenvalues    EBANDS =       385.41643435
  atomic energy  EATOM  =      4687.48422623
  Solvation  Ediel_sol  =         0.00000000
  ---------------------------------------------------
  free energy    TOTEN  =      -240.20496627 eV

  energy without entropy =     -240.07632342  energy(sigma->0) =     -240.14064485


--------------------------------------------------------------------------------------------------------




--------------------------------------- Iteration      1(   7)  ---------------------------------------


    POTLOK:  cpu time    0.0301: real time    0.0302
    SETDIJ:  cpu time    0.0166: real time    0.0167
     EDDAV:  cpu time    2.2241: real time    2.3114
       DOS:  cpu time    0.0012: real time    0.0012
    CHARGE:  cpu time    0.0445: real time    0.0446
    MIXING:  cpu time    0.0014: real time    0.0014
    --------------------------------------------
      LOOP:  cpu time    2.3179: real time    2.4054

 eigenvalue-minimisations  :  2044
 total energy-change (2. order) : 0.5729427E+02  (-0.4213623E+02)
 number of electron     109.0000210 magnetization 
 augmentation part       42.5144744 magnetization 

 Broyden mixing:
  rms(total) = 0.23372E+01    rms(broyden)= 0.23342E+01
  rms(prec ) = 0.44869E+01
  weight for this iteration     100.00

 eigenvalues of (default mixing * dielectric matrix)
  average eigenvalue GAMMA=   0.5546
  0.8573  0.2520

 Free energy of the ion-electron system (eV)
  ---------------------------------------------------
  alpha Z        PSCENC =       568.19985339
  Ewald energy   TEWEN  =     -5366.30828633
  -Hartree energ DENC   =      -643.35550612
  -exchange      EXHF   =         0.00000000
  -V(xc)+E(xc)   XCENC  =      -769.16267832
  PAW double counting   =      6758.78778047    -5941.32183388
  entropy T*S    EENTRO =        -0.10383808
  eigenvalues    EBANDS =       522.86958433
  atomic energy  EATOM  =      4687.48422623
  Solvation  Ediel_sol  =         0.00000000
  ---------------------------------------------------
  free energy    TOTEN  =      -182.91069833 eV

  energy without entropy =     -182.80686025  energy(sigma->0) =     -182.85877929


--------------------------------------------------------------------------------------------------------




--------------------------------------- Iteration      1(   8)  ---------------------------------------


    POTLOK:  cpu time    0.0264: real time    0.0265
    SETDIJ:  cpu time    0.0141: real time    0.0141
     EDDAV:  cpu time    2.3474: real time    2.3506
       DOS:  cpu time    0.0013: real time    0.0013
    CHARGE:  cpu time    0.0480: real time    0.0481
    MIXING:  cpu time    0.0015: real time    0.0015
    --------------------------------------------
      LOOP:  cpu time    2.4387: real time    2.4421

 eigenvalue-minimisations  :  2144
 total energy-change (2. order) :-0.2298674E+02  (-0.3005503E+02)
 number of electron     109.0000080 magnetization 
 augmentation part       43.9580020 magnetization 

 Broyden mixing:
  rms(total) = 0.54678E+01    rms(broyden)= 0.54670E+01
  rms(prec ) = 0.91693E+01
  weight for this iteration     100.00

 eigenvalues of (default mixing * dielectric matrix)
  average eigenvalue GAMMA=   0.4631
  0.9739  0.2469  0.1686

 Free energy of the ion-electron system (eV)
  ---------------------------------------------------
  alpha Z        PSCENC =       568.19985339
  Ewald energy   TEWEN  =     -5366.30828633
  -Hartree energ DENC   =      -650.52917028
  -exchange      EXHF   =         0.00000000
  -V(xc)+E(xc)   XCENC  =      -767.78264787
  PAW double counting   =      7133.70405382    -6325.77099099
  entropy T*S    EENTRO =        -0.11112242
  eigenvalues    EBANDS =       515.21664813
  atomic energy  EATOM  =      4687.48422623
  Solvation  Ediel_sol  =         0.00000000
  ---------------------------------------------------
  free energy    TOTEN  =      -205.89743633 eV

  energy without entropy =     -205.78631390  energy(sigma->0) =     -205.84187512


--------------------------------------------------------------------------------------------------------




--------------------------------------- Iteration      1(   9)  ---------------------------------------


    POTLOK:  cpu time    0.0280: real time    0.0281
    SETDIJ:  cpu time    0.0167: real time    0.0167
     EDDAV:  cpu time    2.7952: real time    3.5469
       DOS:  cpu time    0.0014: real time    0.0014
    CHARGE:  cpu time    0.0502: real time    0.0783
    MIXING:  cpu time    0.0022: real time    0.0022
    --------------------------------------------
      LOOP:  cpu time    2.8937: real time    3.6737

 eigenvalue-minimisations  :  2120
 total energy-change (2. order) : 0.2583684E+02  (-0.1926497E+02)
 number of electron     109.0000176 magnetization 
 augmentation part       42.8999121 magnetization 

 Broyden mixing:
  rms(total) = 0.18075E+01    rms(broyden)= 0.18058E+01
  rms(prec ) = 0.28554E+01
  weight for this iteration     100.00

 eigenvalues of (default mixing * dielectric matrix)
  average eigenvalue GAMMA=   0.3972
  0.9604  0.2793  0.2060  0.1432

 Free energy of the ion-electron system (eV)
  ---------------------------------------------------
  alpha Z        PSCENC =       568.19985339
  Ewald energy   TEWEN  =     -5366.30828633
  -Hartree energ DENC   =      -625.21647750
  -exchange      EXHF   =         0.00000000
  -V(xc)+E(xc)   XCENC  =      -768.92559703
  PAW double counting   =      7280.37355471    -6473.49674095
  entropy T*S    EENTRO =        -0.11318369
  eigenvalues    EBANDS =       517.94205734
  atomic energy  EATOM  =      4687.48422623
  Solvation  Ediel_sol  =         0.00000000
  ---------------------------------------------------
  free energy    TOTEN  =      -180.06059385 eV

  energy without entropy =     -179.94741016  energy(sigma->0) =     -180.00400201


--------------------------------------------------------------------------------------------------------




--------------------------------------- Iteration      1(  10)  ---------------------------------------


    POTLOK:  cpu time    0.0458: real time    0.0581
    SETDIJ:  cpu time    0.0282: real time    0.0282
     EDDAV:  cpu time    3.1197: real time    3.5440
       DOS:  cpu time    0.0016: real time    0.0016
    CHARGE:  cpu time    0.0650: real time    0.1012
    MIXING:  cpu time    0.0020: real time    0.0020
    --------------------------------------------
      LOOP:  cpu time    3.2622: real time    3.7350

 eigenvalue-minimisations  :  2072
 total energy-change (2. order) : 0.5739290E+00  (-0.1950157E+01)
 number of electron     109.0000181 magnetization 
 augmentation part       42.3734588 magnetization 

 Broyden mixing:
  rms(total) = 0.11217E+01    rms(broyden)= 0.11214E+01
  rms(prec ) = 0.14330E+01
  weight for this iteration     100.00

 eigenvalues of (default mixing * dielectric matrix)
  average eigenvalue GAMMA=   0.3574
  0.9598  0.2611  0.2611  0.1525  0.1525

 Free energy of the ion-electron system (eV)
  ---------------------------------------------------
  alpha Z        PSCENC =       568.19985339
  Ewald energy   TEWEN  =     -5366.30828633
  -Hartree energ DENC   =      -624.67547353
  -exchange      EXHF   =         0.00000000
  -V(xc)+E(xc)   XCENC  =      -768.82720564
  PAW double counting   =      7314.49348194    -6508.03156614
  entropy T*S    EENTRO =        -0.10562200
  eigenvalues    EBANDS =       518.28392727
  atomic energy  EATOM  =      4687.48422623
  Solvation  Ediel_sol  =         0.00000000
  ---------------------------------------------------
  free energy    TOTEN  =      -179.48666483 eV

  energy without entropy =     -179.38104283  energy(sigma->0) =     -179.43385383


--------------------------------------------------------------------------------------------------------




--------------------------------------- Iteration      1(  11)  ---------------------------------------


    POTLOK:  cpu time    0.0546: real time    0.1109
    SETDIJ:  cpu time    0.0403: real time    0.0404
     EDDAV:  cpu time    2.5592: real time    2.6784
       DOS:  cpu time    0.0015: real time    0.0015
    CHARGE:  cpu time    0.0503: real time    0.0504
    MIXING:  cpu time    0.0025: real time    0.0025
    --------------------------------------------
      LOOP:  cpu time    2.7085: real time    2.8840

 eigenvalue-minimisations  :  1864
 total energy-change (2. order) : 0.1279610E+00  (-0.1351118E+00)
 number of electron     109.0000176 magnetization 
 augmentation part       42.2573222 magnetization 

 Broyden mixing:
  rms(total) = 0.10280E+01    rms(broyden)= 0.10280E+01
  rms(prec ) = 0.12879E+01
  weight for this iteration     100.00

 eigenvalues of (default mixing * dielectric matrix)
  average eigenvalue GAMMA=   0.4376
  1.0460  0.5226  0.5226  0.1952  0.1952  0.1440

 Free energy of the ion-electron system (eV)
  ---------------------------------------------------
  alpha Z        PSCENC =       568.19985339
  Ewald energy   TEWEN  =     -5366.30828633
  -Hartree energ DENC   =      -625.13486608
  -exchange      EXHF   =         0.00000000
  -V(xc)+E(xc)   XCENC  =      -768.69073716
  PAW double counting   =      7346.77867794    -6540.69040637
  entropy T*S    EENTRO =        -0.10739505
  eigenvalues    EBANDS =       519.11022956
  atomic energy  EATOM  =      4687.48422623
  Solvation  Ediel_sol  =         0.00000000
  ---------------------------------------------------
  free energy    TOTEN  =      -179.35870387 eV

  energy without entropy =     -179.25130882  energy(sigma->0) =     -179.30500634


--------------------------------------------------------------------------------------------------------




--------------------------------------- Iteration      1(  12)  ---------------------------------------


    POTLOK:  cpu time    0.0337: real time    0.0338
    SETDIJ:  cpu time    0.0225: real time    0.0226
     EDDAV:  cpu time    2.9446: real time    3.3405
       DOS:  cpu time    0.0016: real time    0.0016
    CHARGE:  cpu time    0.0500: real time    0.0501
    MIXING:  cpu time    0.0020: real time    0.0020
    --------------------------------------------
      LOOP:  cpu time    3.0543: real time    3.4506

 eigenvalue-minimisations  :  2016
 total energy-change (2. order) : 0.1898137E-01  (-0.1417292E+00)
 number of electron     109.0000177 magnetization 
 augmentation part       42.6259819 magnetization 

 Broyden mixing:
  rms(total) = 0.10190E+01    rms(broyden)= 0.10190E+01
  rms(prec ) = 0.13424E+01
  weight for this iteration     100.00

 eigenvalues of (default mixing * dielectric matrix)
  average eigenvalue GAMMA=   0.5251
  1.2360  0.8363  0.8363  0.2578  0.1781  0.1781  0.1528

 Free energy of the ion-electron system (eV)
  ---------------------------------------------------
  alpha Z        PSCENC =       568.19985339
  Ewald energy   TEWEN  =     -5366.30828633
  -Hartree energ DENC   =      -619.04127847
  -exchange      EXHF   =         0.00000000
  -V(xc)+E(xc)   XCENC  =      -768.59818236
  PAW double counting   =      7454.64826901    -6648.80100627
  entropy T*S    EENTRO =        -0.10679329
  eigenvalues    EBANDS =       513.18347561
  atomic energy  EATOM  =      4687.48422623
  Solvation  Ediel_sol  =         0.00000000
  ---------------------------------------------------
  free energy    TOTEN  =      -179.33972250 eV

  energy without entropy =     -179.23292921  energy(sigma->0) =     -179.28632585


--------------------------------------------------------------------------------------------------------




--------------------------------------- Iteration      1(  13)  ---------------------------------------


    POTLOK:  cpu time    0.0289: real time    0.0290
    SETDIJ:  cpu time    0.0169: real time    0.0169
     EDDAV:  cpu time    2.4257: real time    2.6658
       DOS:  cpu time    0.0016: real time    0.0016
    CHARGE:  cpu time    0.0558: real time    0.1098
    MIXING:  cpu time    0.0019: real time    0.0019
    --------------------------------------------
      LOOP:  cpu time    2.5307: real time    2.8249

 eigenvalue-minimisations  :  2080
 total energy-change (2. order) : 0.1962169E+00  (-0.4701122E+00)
 number of electron     109.0000178 magnetization 
 augmentation part       43.3147550 magnetization 

 Broyden mixing:
  rms(total) = 0.95621E+00    rms(broyden)= 0.95603E+00
  rms(prec ) = 0.13663E+01
  weight for this iteration     100.00

 eigenvalues of (default mixing * dielectric matrix)
  average eigenvalue GAMMA=   0.5601
  1.3027  1.3027  0.8494  0.3413  0.1840  0.1840  0.1739  0.1429

 Free energy of the ion-electron system (eV)
  ---------------------------------------------------
  alpha Z        PSCENC =       568.19985339
  Ewald energy   TEWEN  =     -5366.30828633
  -Hartree energ DENC   =      -609.69600565
  -exchange      EXHF   =         0.00000000
  -V(xc)+E(xc)   XCENC  =      -768.36345066
  PAW double counting   =      7653.27056682    -6848.09427399
  entropy T*S    EENTRO =        -0.11743867
  eigenvalues    EBANDS =       504.48130325
  atomic energy  EATOM  =      4687.48422623
  Solvation  Ediel_sol  =         0.00000000
  ---------------------------------------------------
  free energy    TOTEN  =      -179.14350561 eV

  energy without entropy =     -179.02606695  energy(sigma->0) =     -179.08478628


--------------------------------------------------------------------------------------------------------




--------------------------------------- Iteration      1(  14)  ---------------------------------------


    POTLOK:  cpu time    0.0288: real time    0.0368
    SETDIJ:  cpu time    0.0289: real time    0.0289
     EDDAV:  cpu time    2.7084: real time    3.3297
       DOS:  cpu time    0.0016: real time    0.0016
    CHARGE:  cpu time    0.0517: real time    0.0518
    MIXING:  cpu time    0.0022: real time    0.0022
    --------------------------------------------
      LOOP:  cpu time    2.8215: real time    3.4510

 eigenvalue-minimisations  :  2064
 total energy-change (2. order) : 0.8627700E-01  (-0.2478442E+00)
 number of electron     109.0000186 magnetization 
 augmentation part       43.5781687 magnetization 

 Broyden mixing:
  rms(total) = 0.85774E+00    rms(broyden)= 0.85757E+00
  rms(prec ) = 0.12216E+01
  weight for this iteration     100.00

 eigenvalues of (default mixing * dielectric matrix)
  average eigenvalue GAMMA=   0.6218
  1.7871  1.7871  0.7165  0.4402  0.2022  0.2022  0.1736  0.1437  0.1437

 Free energy of the ion-electron system (eV)
  ---------------------------------------------------
  alpha Z        PSCENC =       568.19985339
  Ewald energy   TEWEN  =     -5366.30828633
  -Hartree energ DENC   =      -606.62997395
  -exchange      EXHF   =         0.00000000
  -V(xc)+E(xc)   XCENC  =      -768.27225802
  PAW double counting   =      7734.01185840    -6929.25017656
  entropy T*S    EENTRO =        -0.11521404
  eigenvalues    EBANDS =       501.82274229
  atomic energy  EATOM  =      4687.48422623
  Solvation  Ediel_sol  =         0.00000000
  ---------------------------------------------------
  free energy    TOTEN  =      -179.05722861 eV

  energy without entropy =     -178.94201457  energy(sigma->0) =     -178.99962159


--------------------------------------------------------------------------------------------------------




--------------------------------------- Iteration      1(  15)  ---------------------------------------


    POTLOK:  cpu time    0.0291: real time    0.0292
    SETDIJ:  cpu time    0.0170: real time    0.0171
     EDDAV:  cpu time    2.9593: real time    3.1913
       DOS:  cpu time    0.0014: real time    0.0014
    CHARGE:  cpu time    0.0499: real time    0.0740
    MIXING:  cpu time    0.0024: real time    0.0144
    --------------------------------------------
      LOOP:  cpu time    3.0591: real time    3.3274

 eigenvalue-minimisations  :  2104
 total energy-change (2. order) : 0.2819454E+00  (-0.8240509E-01)
 number of electron     109.0000181 magnetization 
 augmentation part       43.4010964 magnetization 

 Broyden mixing:
  rms(total) = 0.48149E+00    rms(broyden)= 0.48133E+00
  rms(prec ) = 0.60982E+00
  weight for this iteration     100.00

 eigenvalues of (default mixing * dielectric matrix)
  average eigenvalue GAMMA=   0.5989
  1.8708  1.8708  0.7030  0.4003  0.2501  0.2501  0.1780  0.1780  0.1508  0.1371

 Free energy of the ion-electron system (eV)
  ---------------------------------------------------
  alpha Z        PSCENC =       568.19985339
  Ewald energy   TEWEN  =     -5366.30828633
  -Hartree energ DENC   =      -608.90848788
  -exchange      EXHF   =         0.00000000
  -V(xc)+E(xc)   XCENC  =      -768.15998751
  PAW double counting   =      7755.41934361    -6951.29290111
  entropy T*S    EENTRO =        -0.11607052
  eigenvalues    EBANDS =       504.90702694
  atomic energy  EATOM  =      4687.48422623
  Solvation  Ediel_sol  =         0.00000000
  ---------------------------------------------------
  free energy    TOTEN  =      -178.77528320 eV

  energy without entropy =     -178.65921268  energy(sigma->0) =     -178.71724794


--------------------------------------------------------------------------------------------------------




--------------------------------------- Iteration      1(  16)  ---------------------------------------


    POTLOK:  cpu time    0.0293: real time    0.0413
    SETDIJ:  cpu time    0.0166: real time    0.0166
     EDDAV:  cpu time    2.6375: real time    2.7809
       DOS:  cpu time    0.0015: real time    0.0015
    CHARGE:  cpu time    0.0496: real time    0.0497
    MIXING:  cpu time    0.0023: real time    0.0023
    --------------------------------------------
      LOOP:  cpu time    2.7368: real time    2.8924

 eigenvalue-minimisations  :  2008
 total energy-change (2. order) : 0.3217306E-01  (-0.1617034E-01)
 number of electron     109.0000179 magnetization 
 augmentation part       43.3312386 magnetization 

 Broyden mixing:
  rms(total) = 0.38420E+00    rms(broyden)= 0.38418E+00
  rms(prec ) = 0.46275E+00
  weight for this iteration     100.00

 eigenvalues of (default mixing * dielectric matrix)
  average eigenvalue GAMMA=   0.6362
  2.0083  2.0083  0.6830  0.6063  0.6063  0.2486  0.1859  0.1859  0.1795  0.1446
  0.1414

 Free energy of the ion-electron system (eV)
  ---------------------------------------------------
  alpha Z        PSCENC =       568.19985339
  Ewald energy   TEWEN  =     -5366.30828633
  -Hartree energ DENC   =      -609.62614522
  -exchange      EXHF   =         0.00000000
  -V(xc)+E(xc)   XCENC  =      -768.14097374
  PAW double counting   =      7756.49329400    -6952.58954279
  entropy T*S    EENTRO =        -0.11621884
  eigenvalues    EBANDS =       505.86068317
  atomic energy  EATOM  =      4687.48422623
  Solvation  Ediel_sol  =         0.00000000
  ---------------------------------------------------
  free energy    TOTEN  =      -178.74311014 eV

  energy without entropy =     -178.62689130  energy(sigma->0) =     -178.68500072


--------------------------------------------------------------------------------------------------------




--------------------------------------- Iteration      1(  17)  ---------------------------------------


    POTLOK:  cpu time    0.0285: real time    0.0286
    SETDIJ:  cpu time    0.0163: real time    0.0163
     EDDAV:  cpu time    2.4378: real time    2.9408
       DOS:  cpu time    0.0016: real time    0.0016
    CHARGE:  cpu time    0.0630: real time    0.0632
    MIXING:  cpu time    0.0026: real time    0.0026
    --------------------------------------------
      LOOP:  cpu time    2.5498: real time    3.0531

 eigenvalue-minimisations  :  2088
 total energy-change (2. order) :-0.2290934E-01  (-0.1100189E-01)
 number of electron     109.0000181 magnetization 
 augmentation part       43.3778276 magnetization 

 Broyden mixing:
  rms(total) = 0.33755E+00    rms(broyden)= 0.33754E+00
  rms(prec ) = 0.47799E+00
  weight for this iteration     100.00

 eigenvalues of (default mixing * dielectric matrix)
  average eigenvalue GAMMA=   0.6267
  2.3142  1.6830  0.7284  0.7284  0.6977  0.3408  0.1953  0.1953  0.1819  0.1668
  0.1504  0.1386

 Free energy of the ion-electron system (eV)
  ---------------------------------------------------
  alpha Z        PSCENC =       568.19985339
  Ewald energy   TEWEN  =     -5366.30828633
  -Hartree energ DENC   =      -608.76225865
  -exchange      EXHF   =         0.00000000
  -V(xc)+E(xc)   XCENC  =      -768.07759808
  PAW double counting   =      7791.42532790    -6988.19285958
  entropy T*S    EENTRO =        -0.11700899
  eigenvalues    EBANDS =       505.58258463
  atomic energy  EATOM  =      4687.48422623
  Solvation  Ediel_sol  =         0.00000000
  ---------------------------------------------------
  free energy    TOTEN  =      -178.76601949 eV

  energy without entropy =     -178.64901050  energy(sigma->0) =     -178.70751499


--------------------------------------------------------------------------------------------------------




--------------------------------------- Iteration      1(  18)  ---------------------------------------


    POTLOK:  cpu time    0.0297: real time    0.0538
    SETDIJ:  cpu time    0.0208: real time    0.0332
     EDDAV:  cpu time    2.5740: real time    2.9252
       DOS:  cpu time    0.0024: real time    0.0024
    CHARGE:  cpu time    0.0520: real time    0.0520
    MIXING:  cpu time    0.0029: real time    0.0029
    --------------------------------------------
      LOOP:  cpu time    2.6818: real time    3.0696

 eigenvalue-minimisations  :  2104
 total energy-change (2. order) : 0.1562053E-01  (-0.9192638E-02)
 number of electron     109.0000180 magnetization 
 augmentation part       43.3670895 magnetization 

 Broyden mixing:
  rms(total) = 0.28694E+00    rms(broyden)= 0.28694E+00
  rms(prec ) = 0.40700E+00
  weight for this iteration     100.00

 eigenvalues of (default mixing * dielectric matrix)
  average eigenvalue GAMMA=   0.6867
  2.5191  1.5319  1.5319  0.8066  0.8066  0.4912  0.2120  0.2120  0.1824  0.1824
  0.1652  0.1469  0.1396

 Free energy of the ion-electron system (eV)
  ---------------------------------------------------
  alpha Z        PSCENC =       568.19985339
  Ewald energy   TEWEN  =     -5366.30828633
  -Hartree energ DENC   =      -608.73045248
  -exchange      EXHF   =         0.00000000
  -V(xc)+E(xc)   XCENC  =      -768.06049473
  PAW double counting   =      7797.91814707    -6994.93393961
  entropy T*S    EENTRO =        -0.11652938
  eigenvalues    EBANDS =       505.79707689
  atomic energy  EATOM  =      4687.48422623
  Solvation  Ediel_sol  =         0.00000000
  ---------------------------------------------------
  free energy    TOTEN  =      -178.75039896 eV

  energy without entropy =     -178.63386958  energy(sigma->0) =     -178.69213427


--------------------------------------------------------------------------------------------------------




--------------------------------------- Iteration      1(  19)  ---------------------------------------


    POTLOK:  cpu time    0.0301: real time    0.0302
    SETDIJ:  cpu time    0.0167: real time    0.0168
     EDDAV:  cpu time    2.3543: real time    2.5452
       DOS:  cpu time    0.0015: real time    0.0015
    CHARGE:  cpu time    0.0504: real time    0.0504
    MIXING:  cpu time    0.0026: real time    0.0026
    --------------------------------------------
      LOOP:  cpu time    2.4556: real time    2.6467

 eigenvalue-minimisations  :  2000
 total energy-change (2. order) : 0.3116410E-01  (-0.7615170E-02)
 number of electron     109.0000178 magnetization 
 augmentation part       43.2578076 magnetization 

 Broyden mixing:
  rms(total) = 0.16464E+00    rms(broyden)= 0.16461E+00
  rms(prec ) = 0.23217E+00
  weight for this iteration     100.00

 eigenvalues of (default mixing * dielectric matrix)
  average eigenvalue GAMMA=   0.6674
  2.5593  1.6262  1.6262  0.7986  0.7986  0.4887  0.2219  0.2219  0.1850  0.1850
  0.1870  0.1394  0.1526  0.1526

 Free energy of the ion-electron system (eV)
  ---------------------------------------------------
  alpha Z        PSCENC =       568.19985339
  Ewald energy   TEWEN  =     -5366.30828633
  -Hartree energ DENC   =      -609.90219380
  -exchange      EXHF   =         0.00000000
  -V(xc)+E(xc)   XCENC  =      -768.03170981
  PAW double counting   =      7789.75036096    -6987.20141819
  entropy T*S    EENTRO =        -0.11642800
  eigenvalues    EBANDS =       507.40636070
  atomic energy  EATOM  =      4687.48422623
  Solvation  Ediel_sol  =         0.00000000
  ---------------------------------------------------
  free energy    TOTEN  =      -178.71923485 eV

  energy without entropy =     -178.60280686  energy(sigma->0) =     -178.66102086


--------------------------------------------------------------------------------------------------------




--------------------------------------- Iteration      1(  20)  ---------------------------------------


    POTLOK:  cpu time    0.0278: real time    0.0279
    SETDIJ:  cpu time    0.0146: real time    0.0266
     EDDAV:  cpu time    2.1747: real time    2.4702
       DOS:  cpu time    0.0014: real time    0.0014
    CHARGE:  cpu time    0.0492: real time    0.0493
    MIXING:  cpu time    0.0025: real time    0.0025
    --------------------------------------------
      LOOP:  cpu time    2.2704: real time    2.5781

 eigenvalue-minimisations  :  1808
 total energy-change (2. order) : 0.6187690E-02  (-0.2129193E-02)
 number of electron     109.0000178 magnetization 
 augmentation part       43.2153660 magnetization 

 Broyden mixing:
  rms(total) = 0.12313E+00    rms(broyden)= 0.12313E+00
  rms(prec ) = 0.16835E+00
  weight for this iteration     100.00

 eigenvalues of (default mixing * dielectric matrix)
  average eigenvalue GAMMA=   0.6839
  2.5987  1.7593  1.7593  0.9174  0.7166  0.5333  0.5333  0.2313  0.1395  0.1474
  0.1638  0.1867  0.1867  0.1926  0.1926

 Free energy of the ion-electron system (eV)
  ---------------------------------------------------
  alpha Z        PSCENC =       568.19985339
  Ewald energy   TEWEN  =     -5366.30828633
  -Hartree energ DENC   =      -610.22434296
  -exchange      EXHF   =         0.00000000
  -V(xc)+E(xc)   XCENC  =      -768.02855819
  PAW double counting   =      7786.40648669    -6983.95072802
  entropy T*S    EENTRO =        -0.11621730
  eigenvalues    EBANDS =       507.82451934
  atomic energy  EATOM  =      4687.48422623
  Solvation  Ediel_sol  =         0.00000000
  ---------------------------------------------------
  free energy    TOTEN  =      -178.71304716 eV

  energy without entropy =     -178.59682986  energy(sigma->0) =     -178.65493851


--------------------------------------------------------------------------------------------------------




--------------------------------------- Iteration      1(  21)  ---------------------------------------


    POTLOK:  cpu time    0.0294: real time    0.0295
    SETDIJ:  cpu time    0.0163: real time    0.0163
     EDDAV:  cpu time    2.3589: real time    2.4102
       DOS:  cpu time    0.0014: real time    0.0014
    CHARGE:  cpu time    0.0535: real time    0.0536
    MIXING:  cpu time    0.0031: real time    0.0031
    --------------------------------------------
      LOOP:  cpu time    2.4625: real time    2.5141

 eigenvalue-minimisations  :  2000
 total energy-change (2. order) : 0.3800767E-02  (-0.7720872E-03)
 number of electron     109.0000177 magnetization 
 augmentation part       43.1767463 magnetization 

 Broyden mixing:
  rms(total) = 0.79141E-01    rms(broyden)= 0.79134E-01
  rms(prec ) = 0.10808E+00
  weight for this iteration     100.00

 eigenvalues of (default mixing * dielectric matrix)
  average eigenvalue GAMMA=   0.6608
  2.5919  1.8039  1.8039  0.9369  0.7096  0.5314  0.5314  0.2556  0.2046  0.2046
  0.1821  0.1821  0.1394  0.1489  0.1571  0.1889

 Free energy of the ion-electron system (eV)
  ---------------------------------------------------
  alpha Z        PSCENC =       568.19985339
  Ewald energy   TEWEN  =     -5366.30828633
  -Hartree energ DENC   =      -610.60132598
  -exchange      EXHF   =         0.00000000
  -V(xc)+E(xc)   XCENC  =      -768.02290380
  PAW double counting   =      7781.58383401    -6979.26672845
  entropy T*S    EENTRO =        -0.11610449
  eigenvalues    EBANDS =       508.33818904
  atomic energy  EATOM  =      4687.48422623
  Solvation  Ediel_sol  =         0.00000000
  ---------------------------------------------------
  free energy    TOTEN  =      -178.70924640 eV

  energy without entropy =     -178.59314191  energy(sigma->0) =     -178.65119415


--------------------------------------------------------------------------------------------------------




--------------------------------------- Iteration      1(  22)  ---------------------------------------


    POTLOK:  cpu time    0.0306: real time    0.0308
    SETDIJ:  cpu time    0.0175: real time    0.0176
     EDDAV:  cpu time    2.5491: real time    3.1342
       DOS:  cpu time    0.0015: real time    0.0015
    CHARGE:  cpu time    0.0525: real time    0.0526
    MIXING:  cpu time    0.0031: real time    0.0031
    --------------------------------------------
      LOOP:  cpu time    2.6544: real time    3.2397

 eigenvalue-minimisations  :  1920
 total energy-change (2. order) : 0.1149942E-02  (-0.2421453E-03)
 number of electron     109.0000177 magnetization 
 augmentation part       43.1588068 magnetization 

 Broyden mixing:
  rms(total) = 0.60683E-01    rms(broyden)= 0.60681E-01
  rms(prec ) = 0.81504E-01
  weight for this iteration     100.00

 eigenvalues of (default mixing * dielectric matrix)
  average eigenvalue GAMMA=   0.7330
  2.7540  2.0025  2.0025  1.0063  1.0063  0.7759  0.7759  0.5163  0.2169  0.2169
  0.1850  0.1850  0.1395  0.1478  0.1615  0.1910  0.1784

 Free energy of the ion-electron system (eV)
  ---------------------------------------------------
  alpha Z        PSCENC =       568.19985339
  Ewald energy   TEWEN  =     -5366.30828633
  -Hartree energ DENC   =      -610.76342101
  -exchange      EXHF   =         0.00000000
  -V(xc)+E(xc)   XCENC  =      -768.02060387
  PAW double counting   =      7779.64536232    -6977.38016175
  entropy T*S    EENTRO =        -0.11605813
  eigenvalues    EBANDS =       508.55099271
  atomic energy  EATOM  =      4687.48422623
  Solvation  Ediel_sol  =         0.00000000
  ---------------------------------------------------
  free energy    TOTEN  =      -178.70809646 eV

  energy without entropy =     -178.59203832  energy(sigma->0) =     -178.65006739


--------------------------------------------------------------------------------------------------------




--------------------------------------- Iteration      1(  23)  ---------------------------------------


    POTLOK:  cpu time    0.0294: real time    0.0294
    SETDIJ:  cpu time    0.0165: real time    0.0166
     EDDAV:  cpu time    2.1863: real time    2.8732
       DOS:  cpu time    0.0015: real time    0.0015
    CHARGE:  cpu time    0.0714: real time    0.0715
    MIXING:  cpu time    0.0134: real time    0.0134
    --------------------------------------------
      LOOP:  cpu time    2.3185: real time    3.0056

 eigenvalue-minimisations  :  1856
 total energy-change (2. order) : 0.1279589E-02  (-0.2935361E-03)
 number of electron     109.0000176 magnetization 
 augmentation part       43.1289247 magnetization 

 Broyden mixing:
  rms(total) = 0.23401E-01    rms(broyden)= 0.23391E-01
  rms(prec ) = 0.33054E-01
  weight for this iteration     100.00

 eigenvalues of (default mixing * dielectric matrix)
  average eigenvalue GAMMA=   0.7540
  2.8843  2.1032  2.1032  1.1666  1.1666  0.7607  0.7607  0.5007  0.5007  0.2161
  0.2161  0.1395  0.1479  0.1843  0.1843  0.1998  0.1608  0.1762

 Free energy of the ion-electron system (eV)
  ---------------------------------------------------
  alpha Z        PSCENC =       568.19985339
  Ewald energy   TEWEN  =     -5366.30828633
  -Hartree energ DENC   =      -611.05645439
  -exchange      EXHF   =         0.00000000
  -V(xc)+E(xc)   XCENC  =      -768.01432012
  PAW double counting   =      7775.63445155    -6973.50832579
  entropy T*S    EENTRO =        -0.11596174
  eigenvalues    EBANDS =       508.97800034
  atomic energy  EATOM  =      4687.48422623
  Solvation  Ediel_sol  =         0.00000000
  ---------------------------------------------------
  free energy    TOTEN  =      -178.70681687 eV

  energy without entropy =     -178.59085513  energy(sigma->0) =     -178.64883600


--------------------------------------------------------------------------------------------------------




--------------------------------------- Iteration      1(  24)  ---------------------------------------


    POTLOK:  cpu time    0.0517: real time    0.0519
    SETDIJ:  cpu time    0.0284: real time    0.0284
     EDDAV:  cpu time    2.3044: real time    3.1332
       DOS:  cpu time    0.0016: real time    0.0016
    CHARGE:  cpu time    0.0515: real time    0.0636
    MIXING:  cpu time    0.0028: real time    0.0028
    --------------------------------------------
      LOOP:  cpu time    2.4404: real time    3.2815

 eigenvalue-minimisations  :  1928
 total energy-change (2. order) : 0.1309652E-03  (-0.1270139E-03)
 number of electron     109.0000176 magnetization 
 augmentation part       43.1169444 magnetization 

 Broyden mixing:
  rms(total) = 0.12211E-01    rms(broyden)= 0.12206E-01
  rms(prec ) = 0.17880E-01
  weight for this iteration     100.00

 eigenvalues of (default mixing * dielectric matrix)
  average eigenvalue GAMMA=   0.7782
  3.1914  2.0832  2.0832  1.4492  1.3258  0.8473  0.7327  0.7327  0.5244  0.2166
  0.2166  0.1395  0.1479  0.1845  0.1845  0.1608  0.1980  0.1898  0.1786

 Free energy of the ion-electron system (eV)
  ---------------------------------------------------
  alpha Z        PSCENC =       568.19985339
  Ewald energy   TEWEN  =     -5366.30828633
  -Hartree energ DENC   =      -611.15125533
  -exchange      EXHF   =         0.00000000
  -V(xc)+E(xc)   XCENC  =      -768.01319794
  PAW double counting   =      7774.28678675    -6972.19273707
  entropy T*S    EENTRO =        -0.11597178
  eigenvalues    EBANDS =       509.10389619
  atomic energy  EATOM  =      4687.48422623
  Solvation  Ediel_sol  =         0.00000000
  ---------------------------------------------------
  free energy    TOTEN  =      -178.70668590 eV

  energy without entropy =     -178.59071412  energy(sigma->0) =     -178.64870001


--------------------------------------------------------------------------------------------------------




--------------------------------------- Iteration      1(  25)  ---------------------------------------


    POTLOK:  cpu time    0.0288: real time    0.0290
    SETDIJ:  cpu time    0.0454: real time    0.0821
     EDDAV:  cpu time    2.4285: real time    3.3911
       DOS:  cpu time    0.0014: real time    0.0014
    CHARGE:  cpu time    0.0485: real time    0.0485
    MIXING:  cpu time    0.0029: real time    0.0029
    --------------------------------------------
      LOOP:  cpu time    2.5555: real time    3.5549

 eigenvalue-minimisations  :  2128
 total energy-change (2. order) : 0.7873975E-04  (-0.5558914E-04)
 number of electron     109.0000176 magnetization 
 augmentation part       43.1079746 magnetization 

 Broyden mixing:
  rms(total) = 0.21734E-02    rms(broyden)= 0.21575E-02
  rms(prec ) = 0.29892E-02
  weight for this iteration     100.00

 eigenvalues of (default mixing * dielectric matrix)
  average eigenvalue GAMMA=   0.7773
  3.2556  2.0838  2.0838  1.4737  1.4737  0.7983  0.7318  0.7318  0.5659  0.5314
  0.2167  0.2167  0.1395  0.1479  0.1845  0.1845  0.1608  0.2000  0.1907  0.1749

 Free energy of the ion-electron system (eV)
  ---------------------------------------------------
  alpha Z        PSCENC =       568.19985339
  Ewald energy   TEWEN  =     -5366.30828633
  -Hartree energ DENC   =      -611.24655688
  -exchange      EXHF   =         0.00000000
  -V(xc)+E(xc)   XCENC  =      -768.01212241
  PAW double counting   =      7772.76912874    -6970.70587739
  entropy T*S    EENTRO =        -0.11591289
  eigenvalues    EBANDS =       509.22894039
  atomic energy  EATOM  =      4687.48422623
  Solvation  Ediel_sol  =         0.00000000
  ---------------------------------------------------
  free energy    TOTEN  =      -178.70660716 eV

  energy without entropy =     -178.59069427  energy(sigma->0) =     -178.64865072


--------------------------------------------------------------------------------------------------------




--------------------------------------- Iteration      1(  26)  ---------------------------------------


    POTLOK:  cpu time    0.0272: real time    0.0273
    SETDIJ:  cpu time    0.0164: real time    0.0164
     EDDAV:  cpu time    2.1904: real time    2.8463
       DOS:  cpu time    0.0015: real time    0.0015
    --------------------------------------------
      LOOP:  cpu time    2.2356: real time    2.8915

 eigenvalue-minimisations  :  1360
 total energy-change (2. order) :-0.2623467E-05  (-0.6049647E-05)
 number of electron     109.0000176 magnetization 
 augmentation part       43.1079746 magnetization 

 Free energy of the ion-electron system (eV)
  ---------------------------------------------------
  alpha Z        PSCENC =       568.19985339
  Ewald energy   TEWEN  =     -5366.30828633
  -Hartree energ DENC   =      -611.25546011
  -exchange      EXHF   =         0.00000000
  -V(xc)+E(xc)   XCENC  =      -768.01228848
  PAW double counting   =      7772.53334661    -6970.47503307
  entropy T*S    EENTRO =        -0.11590933
  eigenvalues    EBANDS =       509.24294132
  atomic energy  EATOM  =      4687.48422623
  Solvation  Ediel_sol  =         0.00000000
  ---------------------------------------------------
  free energy    TOTEN  =      -178.70660978 eV

  energy without entropy =     -178.59070046  energy(sigma->0) =     -178.64865512


--------------------------------------------------------------------------------------------------------




 average (electrostatic) potential at core
  the test charge radii are     1.2064  1.0103
  (the norm of the test charge is              1.0000)
       1 -38.8853       2 -39.1085       3 -38.8525       4 -38.9924       5 -38.7158
       6 -38.9393       7 -38.8110       8 -38.8073       9 -38.9756      10 -39.0769
      11 -38.9443      12 -38.6881      13 -38.9490      14 -38.6367      15 -38.6971
      16 -38.9357      17 -38.7066      18 -42.7826      19 -42.7787      20 -42.7544
 
 
 
 E-fermi :   6.5420     XC(G=0): -12.7964     alpha+bet :-15.6834


 k-point     1 :       0.0000    0.0000    0.0000
  band No.  band energies     occupation 
      1      -0.4124      2.00000
      2       1.2692      2.00000
      3       1.5057      2.00000
      4       2.8587      2.00000
      5       2.9511      2.00000
      6       3.0562      2.00000
      7       3.1276      2.00000
      8       3.2314      2.00000
      9       3.5542      2.00000
     10       3.6084      2.00000
     11       3.7059      2.00000
     12       3.7702      2.00000
     13       3.8803      2.00000
     14       3.9206      2.00000
     15       4.0193      2.00000
     16       4.0666      2.00000
     17       4.1019      2.00000
     18       4.1356      2.00000
     19       4.2038      2.00000
     20       4.3220      2.00000
     21       4.3381      2.00000
     22       4.3738      2.00000
     23       4.5620      2.00000
     24       4.5696      2.00000
     25       4.5802      2.00000
     26       4.6061      2.00000
     27       4.7446      2.00000
     28       4.7707      2.00000
     29       4.8167      2.00000
     30       4.8299      2.00000
     31       4.8711      2.00000
     32       4.9234      2.00000
     33       5.0026      2.00000
     34       5.1314      2.00000
     35       5.1715      2.00000
     36       5.2358      2.00000
     37       5.2416      2.00000
     38       5.2937      2.00000
     39       5.3584      2.00000
     40       5.4468      2.00000
     41       5.4975      2.00000
     42       5.7052      2.00000
     43       5.7359      2.00000
     44       5.8806      2.00000
     45       5.9657      2.00000
     46       6.0974      2.00000
     47       6.1271      2.00000
     48       6.2159      2.00000
     49       6.3300      1.99728
     50       6.3455      1.99453
     51       6.4186      1.91896
     52       6.4796      1.62201
     53       6.5003      1.44421
     54       6.5250      1.18983
     55       6.6380      0.17467
     56       6.6911      0.03498
     57       6.7827      0.00066
     58       6.8808      0.00000
[...]
     31       5.1134      2.00000
     32       5.2337      2.00000
     33       5.2879      2.00000
     34       5.3201      2.00000
     35       5.3881      2.00000
     36       5.4380      2.00000
     37       5.4829      2.00000
     38       5.5966      2.00000
     39       5.6812      2.00000
     40       5.6920      2.00000
     41       5.7134      2.00000
     42       5.8184      2.00000
     43       5.8828      2.00000
     44       5.9395      2.00000
     45       5.9891      2.00000
     46       6.0460      2.00000
     47       6.0838      2.00000
     48       6.0920      2.00000
     49       6.1283      2.00000
     50       6.1844      2.00000
     51       6.2229      2.00000
     52       6.2557      1.99996
     53       6.3390      1.99678
     54       6.3755      1.98492
     55       6.4229      1.92156
     56       6.4438      1.85683
     57       6.4809      1.65285
     58       7.0803      0.00000
     59       7.0847      0.00000
     60       7.2720      0.00000
     61       7.3408      0.00000
     62       7.4149      0.00000
     63       7.4348      0.00000
     64       7.5781      0.00000
     65       7.5915      0.00000
     66       7.6599      0.00000
     67       7.7181      0.00000
     68       7.7776      0.00000

 k-point     7 :       0.0000    0.5000    0.3333
  band No.  band energies     occupation 
      1       0.9978      2.00000
      2       1.2516      2.00000
      3       2.9279      2.00000
      4       2.9989      2.00000
      5       3.1416      2.00000
      6       3.2311      2.00000
      7       3.2843      2.00000
      8       3.3132      2.00000
      9       3.4350      2.00000
     10       3.4924      2.00000
     11       3.5228      2.00000
     12       3.5255      2.00000
     13       3.7542      2.00000
     14       3.8091      2.00000
     15       3.9198      2.00000
     16       3.9486      2.00000
     17       3.9691      2.00000
     18       4.0269      2.00000
     19       4.1357      2.00000
     20       4.2059      2.00000
     21       4.2815      2.00000
     22       4.3605      2.00000
     23       4.5939      2.00000
     24       4.6534      2.00000
     25       4.7403      2.00000
     26       4.8088      2.00000
     27       4.8588      2.00000
     28       4.9152      2.00000
     29       4.9436      2.00000
     30       5.0058      2.00000
     31       5.0414      2.00000
     32       5.1739      2.00000
     33       5.3034      2.00000
     34       5.3265      2.00000
     35       5.4128      2.00000
     36       5.4668      2.00000
     37       5.4960      2.00000
     38       5.5835      2.00000
     39       5.7004      2.00000
     40       5.7598      2.00000
     41       5.7887      2.00000
     42       5.8438      2.00000
     43       5.8880      2.00000
     44       6.0044      2.00000
     45       6.0306      2.00000
     46       6.0755      2.00000
     47       6.0959      2.00000
     48       6.1057      2.00000
     49       6.1267      2.00000
     50       6.1523      2.00000
     51       6.2037      2.00000
     52       6.2287      1.99999
     53       6.2655      1.99993
     54       6.3665      1.98944
     55       6.5234      1.26556
     56       6.5998      0.45819
     57       6.6394      0.19313
     58       6.7035      0.02724
     59       7.1407      0.00000
     60       7.2498      0.00000
     61       7.3361      0.00000
     62       7.4238      0.00000
     63       7.4498      0.00000
     64       7.5206      0.00000
     65       7.6053      0.00000
     66       7.6215      0.00000
     67       7.7177      0.00000
     68       7.7889      0.00000

 k-point     8 :       0.5000    0.5000    0.3333
  band No.  band energies     occupation 
      1       1.6141      2.00000
      2       1.8881      2.00000
      3       2.0127      2.00000
      4       2.2701      2.00000
      5       2.9201      2.00000
      6       3.0454      2.00000
      7       3.3624      2.00000
      8       3.4420      2.00000
      9       3.4838      2.00000
     10       3.5921      2.00000
     11       3.6481      2.00000
     12       3.6747      2.00000
     13       3.7691      2.00000
     14       3.8015      2.00000
     15       3.8434      2.00000
     16       3.8512      2.00000
     17       3.8849      2.00000
     18       3.9972      2.00000
     19       4.0159      2.00000
     20       4.0539      2.00000
     21       4.1059      2.00000
     22       4.1243      2.00000
     23       4.7137      2.00000
     24       4.7523      2.00000
     25       4.8254      2.00000
     26       4.8833      2.00000
     27       4.9511      2.00000
     28       5.0596      2.00000
     29       5.1535      2.00000
     30       5.2152      2.00000
     31       5.2377      2.00000
     32       5.2839      2.00000
     33       5.3573      2.00000
     34       5.3681      2.00000
     35       5.4119      2.00000
     36       5.4485      2.00000
     37       5.5177      2.00000
     38       5.5585      2.00000
     39       5.5842      2.00000
     40       5.6156      2.00000
     41       5.7596      2.00000
     42       5.7763      2.00000
     43       5.8089      2.00000
     44       5.9431      2.00000
     45       5.9648      2.00000
     46       6.0289      2.00000
     47       6.0412      2.00000
     48       6.1284      2.00000
     49       6.1667      2.00000
     50       6.2685      1.99992
     51       6.3723      1.98670
     52       6.3948      1.96901
     53       6.5411      1.07061
     54       6.5726      0.72117
     55       6.5864      0.58070
     56       6.6870      0.04834
     57       6.7811      0.00095
     58       6.8343      0.00005
     59       6.9186      0.00000
     60       6.9805      0.00000
     61       7.0907      0.00000
     62       7.1591      0.00000
     63       7.2920      0.00000
     64       7.3675      0.00000
     65       7.4465      0.00000
     66       7.4686      0.00000
     67       7.5770      0.00000
     68       7.7024      0.00000


--------------------------------------------------------------------------------------------------------


 soft charge-density along one line, spin component           1
         0         1         2         3         4         5         6         7         8         9
 total charge-density along one line
 
 pseudopotential strength for first ion, spin component:           1
 -1.087   0.000  -0.004   0.000  -0.003  -1.611   0.000  -0.004
  0.000  -1.085   0.000  -0.000  -0.000   0.000  -1.609   0.000
 -0.004   0.000  -1.073   0.000   0.001  -0.004   0.000  -1.597
  0.000  -0.000   0.000  -1.063   0.000   0.000  -0.000   0.000
 -0.003  -0.000   0.001   0.000  -1.083  -0.003  -0.000   0.001
 -1.611   0.000  -0.004   0.000  -0.003  -2.085  -0.000  -0.004
  0.000  -1.609   0.000  -0.000  -0.000  -0.000  -2.083   0.000
 -0.004   0.000  -1.597   0.000   0.001  -0.004   0.000  -2.072
  0.000  -0.000   0.000  -1.587   0.000   0.000  -0.001   0.000
 -0.003  -0.000   0.001   0.000  -1.607  -0.003  -0.000   0.001
 -0.001  -0.000  -0.003  -0.000  -0.001  -0.001  -0.000  -0.003
  0.003   0.000   0.006   0.000   0.002   0.003   0.000   0.006
  0.002   0.000   0.002   0.000   0.003   0.002   0.000   0.002
  0.000  -0.002   0.000   0.002  -0.000   0.000  -0.001   0.000
 -0.003   0.000  -0.001   0.000   0.002  -0.003   0.000  -0.001
 -0.002  -0.000  -0.003  -0.000  -0.004  -0.002  -0.000  -0.003
 -0.000   0.004  -0.000  -0.002   0.000  -0.000   0.003  -0.000
  0.005  -0.000   0.001  -0.000  -0.002   0.004  -0.000   0.001
 total augmentation occupancy for first ion, spin component:           1
  0.479  -0.000  -0.016   0.000  -0.071  -0.803   0.000   0.036  -0.000   0.140   0.053   0.002   0.029  -0.000  -0.043   0.001
 -0.000   0.424   0.000  -0.077   0.000   0.000  -0.674  -0.000   0.138  -0.000   0.000   0.000   0.000  -0.003  -0.000   0.000
 -0.016   0.000   0.496   0.000   0.091   0.036  -0.000  -0.812  -0.000  -0.189   0.019   0.001   0.030  -0.000  -0.017   0.001
  0.000  -0.077   0.000   0.593   0.000  -0.000   0.136  -0.000  -1.052  -0.000  -0.000  -0.000   0.000   0.008  -0.000   0.000
 -0.071   0.000   0.091   0.000   0.578   0.141  -0.000  -0.190  -0.000  -0.950   0.012   0.001   0.016  -0.000   0.012   0.001
 -0.803   0.000   0.036  -0.000   0.141   1.941  -0.000  -0.005   0.000  -0.128  -0.054  -0.003  -0.045   0.000   0.035  -0.002
  0.000  -0.674  -0.000   0.136  -0.000  -0.000   1.760   0.000  -0.123   0.000   0.000  -0.000  -0.000  -0.009   0.000  -0.000
  0.036  -0.000  -0.812  -0.000  -0.190  -0.005   0.000   1.919   0.000   0.215  -0.003  -0.002  -0.019   0.000   0.022  -0.001
 -0.000   0.138  -0.000  -1.052  -0.000   0.000  -0.123   0.000   2.182   0.000   0.000   0.000   0.000   0.004   0.000  -0.000
  0.140  -0.000  -0.189  -0.000  -0.950  -0.128   0.000   0.215   0.000   2.007   0.009  -0.001   0.007   0.000   0.007  -0.000
  0.053   0.000   0.019  -0.000   0.012  -0.054   0.000  -0.003   0.000   0.009   2.066   0.047  -0.019   0.000  -0.006   0.000
  0.002   0.000   0.001  -0.000   0.001  -0.003  -0.000  -0.002   0.000  -0.001   0.047   0.001   0.001  -0.000  -0.001   0.000
  0.029   0.000   0.030   0.000   0.016  -0.045  -0.000  -0.019   0.000   0.007  -0.019   0.001   0.381  -0.000  -0.012   0.011
 -0.000  -0.003  -0.000   0.008  -0.000   0.000  -0.009   0.000   0.004   0.000   0.000  -0.000  -0.000   0.390   0.000  -0.000
 -0.043  -0.000  -0.017  -0.000   0.012   0.035   0.000   0.022   0.000   0.007  -0.006  -0.001  -0.012   0.000   0.408  -0.000
  0.001   0.000   0.001   0.000   0.001  -0.002  -0.000  -0.001  -0.000  -0.000   0.000   0.000   0.011  -0.000  -0.000   0.000
  0.000  -0.000   0.000   0.000  -0.000  -0.000  -0.001  -0.000  -0.000   0.000  -0.000  -0.000  -0.000   0.010   0.000  -0.000
 -0.001  -0.000  -0.001   0.000   0.000   0.001  -0.000   0.001  -0.000   0.000  -0.001  -0.000  -0.000  -0.000   0.011  -0.000


------------------------ aborting loop because EDIFF is reached ----------------------------------------


    CHARGE:  cpu time    0.0521: real time    0.0521
    FORLOC:  cpu time    0.0083: real time    0.0083
    FORNL :  cpu time    1.1351: real time    1.1364
    STRESS:  cpu time    1.2643: real time    1.2657
    FORCOR:  cpu time    0.0367: real time    0.0367
    FORHAR:  cpu time    0.0140: real time    0.0140
    MIXING:  cpu time    0.0019: real time    0.0019
    OFIELD:  cpu time    0.0001: real time    0.0000

  FORCE on cell =-STRESS in cart. coord.  units (eV):
  Direction    XX          YY          ZZ          XY          YZ          ZX
  --------------------------------------------------------------------------------------
  Alpha Z   568.66476   568.66476   568.66476
  Ewald   -1774.78226 -1825.83918 -1760.20600   -19.57939    -0.02552    -0.00160
  Hartree   223.04447   159.72291   235.19078     1.70211     0.00704    -0.00002
  E(xc)    -498.52596  -498.71115  -497.66540     1.18948     0.00169     0.00014
  Local     271.15052   391.60221   249.08360    16.58943     0.01286     0.00096
  n-local   -89.07939   -91.78344   -90.17202     0.77364     0.00224    -0.00005
  augment   449.48037   449.02435   447.57434    -1.33536    -0.00140    -0.00014
  Kinetic   849.98637   847.26399   847.50253     0.68649     0.00217     0.00050
  Fock        0.00000     0.00000     0.00000     0.00000     0.00000     0.00000
  -------------------------------------------------------------------------------------
  Total      -0.06111    -0.05555    -0.02741     0.02640    -0.00091    -0.00022
  in kB      -0.38901    -0.35363    -0.17448     0.16807    -0.00581    -0.00143
  external pressure =       -0.31 kB  Pullay stress =        0.00 kB


 VOLUME and BASIS-vectors are now :
 -----------------------------------------------------------------------------
  energy-cutoff  :      267.88
  volume of cell :      251.69
      direct lattice vectors                 reciprocal lattice vectors
     6.393666736  0.042072345 -0.000301247     0.156207396  0.029995132 -0.000016193
    -1.821569014  9.486290141 -0.001649945    -0.000692792  0.105282253 -0.000022824
     0.000256769  0.000900137  4.144426754     0.000011078  0.000044094  0.241287883

  length of vectors
     6.393805166  9.659597147  4.144426860     0.159061179  0.105284534  0.241287887


 FORCES acting on ions
    electron-ion (+dipol)            ewald-force                    non-local-force                 convergence-correction
 -----------------------------------------------------------------------------------------------
   -.136E+02 0.536E+02 -.101E-01   0.136E+02 -.541E+02 0.989E-02   -.628E-01 0.433E+00 0.692E-04   0.916E-03 -.322E-02 -.375E-04
   0.272E+02 -.287E+02 -.629E-02   -.274E+02 0.291E+02 0.630E-02   0.212E+00 -.376E+00 0.129E-03   -.497E-03 -.799E-02 0.417E-04
   0.188E+02 -.840E+01 0.241E-02   -.190E+02 0.825E+01 -.308E-02   0.159E+00 0.160E+00 0.552E-03   -.644E-02 -.407E-02 -.607E-04
   0.199E+02 -.224E+02 -.125E-02   -.208E+02 0.222E+02 0.153E-02   0.986E+00 0.173E+00 -.157E-03   0.244E-02 0.432E-02 0.356E-04
   -.642E+01 0.115E+02 -.255E-02   0.663E+01 -.111E+02 0.226E-02   -.211E+00 -.368E+00 0.235E-03   -.386E-04 0.357E-02 -.302E-04
   -.146E+02 0.558E+02 -.111E-01   0.155E+02 -.561E+02 0.113E-01   -.900E+00 0.319E+00 -.162E-03   0.692E-02 0.156E-01 0.109E-04
   -.286E+02 -.228E+02 0.972E-02   0.289E+02 0.228E+02 -.104E-01   -.328E+00 -.157E-01 0.549E-03   0.937E-02 0.548E-03 -.455E-04
   0.310E+02 -.213E+02 0.727E-03   -.314E+02 0.214E+02 -.543E-05   0.413E+00 -.556E-01 -.619E-03   -.527E-02 -.588E-02 0.428E-04
   0.111E+02 0.572E+02 -.125E-01   -.108E+02 -.574E+02 0.125E-01   -.276E+00 0.204E+00 -.665E-04   -.195E-02 -.257E-02 -.156E-04
   -.346E+02 -.282E+02 0.561E-02   0.346E+02 0.284E+02 -.484E-02   0.382E-01 -.198E+00 -.615E-03   0.618E-02 -.165E-01 0.604E-04
   0.280E-01 0.522E+02 -.105E-01   -.191E+00 -.522E+02 0.103E-01   0.170E+00 0.235E-02 0.194E-03   -.430E-02 0.146E-01 -.476E-05
   0.229E+02 -.198E+02 0.503E-02   -.235E+02 0.200E+02 -.546E-02   0.691E+00 -.231E+00 0.350E-03   -.365E-02 0.133E-02 -.272E-04
   -.770E+01 -.353E+02 0.186E-01   0.778E+01 0.355E+02 -.188E-01   -.779E-01 -.149E+00 0.378E-04   0.369E-03 0.135E-02 -.581E-04
   -.305E+02 -.329E+02 0.483E-02   0.314E+02 0.334E+02 -.459E-02   -.894E+00 -.420E+00 -.137E-03   0.511E-02 -.886E-02 0.252E-04
   0.211E+01 0.203E+02 -.279E-02   -.230E+01 -.209E+02 0.235E-02   0.188E+00 0.570E+00 0.308E-03   0.172E-02 -.381E-02 -.498E-04
   0.181E+01 -.396E+02 0.862E-02   -.162E+01 0.397E+02 -.814E-02   -.186E+00 -.137E+00 -.328E-03   -.842E-02 -.464E-02 0.482E-04
   0.899E+00 0.959E+01 -.579E-02   -.976E+00 -.965E+01 0.592E-02   0.903E-01 0.502E-01 -.237E-04   -.935E-02 0.931E-02 0.284E-04
   0.542E+01 -.472E+02 0.119E-01   -.555E+01 0.476E+02 -.118E-01   0.135E+00 -.344E+00 -.646E-04   -.626E-02 -.232E-02 -.332E-04
   0.382E+02 0.459E+02 -.884E-02   -.385E+02 -.461E+02 0.888E-02   0.367E+00 0.161E+00 -.216E-04   0.117E-02 0.137E-01 0.396E-04
   -.432E+02 0.480E+00 0.445E-02   0.436E+02 -.708E+00 -.416E-02   -.398E+00 0.227E+00 -.245E-03   0.177E-01 0.245E-02 0.112E-03
 -----------------------------------------------------------------------------------------------
   -.120E+00 -.141E-01 0.304E-03   0.924E-13 0.356E-13 -.953E-14   0.115E+00 0.484E-02 -.152E-04   0.571E-02 0.681E-02 0.822E-04
 
 
 POSITION                                       TOTAL-FORCE (eV/Angst)
 -----------------------------------------------------------------------------------
      0.85974      1.85201      3.27979        -0.000055     -0.004801     -0.000155
      0.05189      6.55421      3.27871        -0.004106      0.001790      0.000161
      0.52253      0.40081      1.20791         0.002641      0.000698     -0.000200
     -0.36816      5.09755      1.20680        -0.000459      0.004567      0.000138
      2.86812      1.38923      1.20757        -0.002395      0.001624     -0.000109
      1.26901      3.29809      1.20718         0.001349      0.002957      0.000027
      2.67067      8.93825      1.20621         0.000746      0.000215     -0.000160
      4.46185      7.05477      1.20623         0.000475     -0.003973      0.000127
      5.25346      2.35323      1.20725        -0.003324     -0.003732     -0.000064
      2.01999      6.09381      1.20647        -0.004196     -0.000156      0.000196
      3.26263      2.81506      3.27942         0.002049      0.001163      0.000019
      4.72896      8.49712      3.27834        -0.001415      0.000015     -0.000127
      0.69020      9.39581      3.27846         0.000255      0.001768     -0.000213
      2.38941      7.51692      3.27850         0.002884     -0.003390      0.000115
      4.89450      0.89098      3.27982         0.001878     -0.000670     -0.000201
      4.02790      5.61008      3.27869         0.002349     -0.003683      0.000181
      3.65170      4.22554      1.20681         0.003208      0.002842      0.000120
      0.36354      7.96551      1.20639        -0.001729      0.000721     -0.000043
      5.66104      3.75405      3.27909         0.001676     -0.000121      0.000045
      1.63073      4.69596      3.27903        -0.001831      0.002166      0.000144
 -----------------------------------------------------------------------------------
    total drift:                                0.000249     -0.002434      0.000371


--------------------------------------------------------------------------------------------------------



  FREE ENERGIE OF THE ION-ELECTRON SYSTEM (eV)
  ---------------------------------------------------
  free  energy   TOTEN  =      -178.82342717 eV

  energy  without entropy=     -178.71036910  energy(sigma->0) =     -178.76689814
 
 d Force = 0.3243872E-04[ 0.119E-04, 0.530E-04]  d Energy = 0.3385692E-04-0.142E-05
 d Force =-0.1015921E+00[-0.102E+00,-0.101E+00]  d Ewald  =-0.5582470E+00 0.457E+00


--------------------------------------------------------------------------------------------------------


    POTLOK:  cpu time    0.0476: real time    0.0477


--------------------------------------------------------------------------------------------------------


 Conjugate gradient step on ions:
 trial-energy change:   -0.000034  1 .order   -0.000043   -0.000078   -0.000007
  (g-gl).g = 0.699E-04      g.g   = 0.693E-04  gl.gl    = 0.280E-03
 g(Force)  = 0.426E-04   g(Stress)= 0.268E-04 ortho     =-0.134E-04
 gamma     =   0.25005
 trial     =   1.18643
 opt step  =   1.30215  (harmonic =   1.30215) maximal distance =0.00097875
 next E    =  -178.823436   (d E  =  -0.00004)


--------------------------------------------------------------------------------------------------------


  
 reached required accuracy - stopping structural energy minimisation
     LOOP+:  cpu time   16.8133: real time   16.8373
    4ORBIT:  cpu time    0.0000: real time    0.0000

 total amount of memory used by VASP MPI-rank0    47914. kBytes
=======================================================================

   base      :      30000. kBytes
   nonl-proj :       6633. kBytes
   fftplans  :       1515. kBytes
   grid      :       3171. kBytes
   one-center:        311. kBytes
   wavefun   :       6284. kBytes
 
  
  
 General timing and accounting informations for this job:
 ========================================================
  
                  Total CPU time used (sec):      504.476
                            User time (sec):      500.716
                          System time (sec):        3.759
                         Elapsed time (sec):      540.821
  
                   Maximum memory used (kb):      187000.
                   Average memory used (kb):           0.
  
                          Minor page faults:       478211
                          Major page faults:            0
                 Voluntary context switches:          423
