<?xml version="1.0" encoding="ISO-8859-1"?>
<modeling>
 <generator>
  <i name="program" type="string">vasp </i>
  <i name="version" type="string">5.4.4.18Apr17-6-g9f103f2a35  </i>
  <i name="subversion" type="string">(build Jul 11 2019 11:52:51) complex            parallel </i>
  <i name="platform" type="string">LinuxIFC </i>
  <i name="date" type="string">2023 11 29 </i>
  <i name="time" type="string">16:45:26 </i>
 </generator>
 <incar>
  <i type="int" name="ISTART">     0</i>
  <i type="string" name="PREC">normal</i>
  <i type="int" name="IBRION">     2</i>
  <i name="EDIFF">      0.00001000</i>
  <i name="EDIFFG">     -0.01000000</i>
  <i type="int" name="NSW">   500</i>
  <i type="int" name="ISIF">     3</i>
  <i name="POTIM">      0.50000000</i>
  <i type="int" name="ISMEAR">     0</i>
  <i name="SIGMA">      0.10000000</i>
  <i name="PSTRESS">      0.00000000</i>
  <i type="logical" name="LWAVE"> F  </i>
  <i type="logical" name="LCHARG"> F  </i>
  <v type="int" name="KPOINT_BSE">    -1     0     0     0</v>
 </incar>
 <structure name="primitive_cell" >
  <crystal>
   <varray name="basis" >
    <v>       6.37427700       0.03944400      -0.00058200 </v>
    <v>      -1.82021700       9.53839900      -0.00175500 </v>
    <v>       0.00007400       0.00082200       4.13804800 </v>
   </varray>
   <i name="volume">    251.89207112 </i>
   <varray name="rec_basis" >
    <v>       0.15669550       0.02990227      -0.00000874 </v>
    <v>      -0.00064798       0.10471574      -0.00002079 </v>
    <v>       0.00002176       0.00004862       0.24165983 </v>
   </varray>
  </crystal>
  <varray name="positions" >
   <v>       0.19445100       0.19280800      -0.20832300 </v>
   <v>      -0.00411600       0.39398100      -0.20866400 </v>
   <v>       0.29728400       0.34182200       0.29141600 </v>
   <v>      -0.20347200       0.08831600      -0.20830500 </v>
   <v>       0.09859300       0.03809700       0.29177600 </v>
   <v>       0.39842400      -0.01211600      -0.20826800 </v>
   <v>      -0.39780200       0.29125400      -0.20848700 </v>
   <v>      -0.10317000       0.24175400       0.29161500 </v>
   <v>       0.38570300       0.49018900      -0.20883000 </v>
   <v>       0.49695400       0.14101300       0.29167600 </v>
   <v>      -0.00884700      -0.10947000      -0.20838900 </v>
   <v>       0.09154800      -0.46006400       0.29114500 </v>
   <v>       0.29581600      -0.16036400       0.29150200 </v>
   <v>      -0.30779500       0.44428300       0.29121900 </v>
   <v>      -0.31062900      -0.06162100       0.29167300 </v>
   <v>       0.20092100      -0.30445400      -0.20880600 </v>
   <v>      -0.09799000      -0.25806300       0.29124300 </v>
   <v>       0.49187200      -0.35584600       0.29113600 </v>
   <v>      -0.20722500      -0.40732000      -0.20892500 </v>
   <v>      -0.40728200      -0.21082500      -0.20865000 </v>
  </varray>
 </structure>
 <varray name="primitive_index" >
  <v type="int" >        1 </v>
  <v type="int" >       19 </v>
  <v type="int" >        6 </v>
  <v type="int" >       15 </v>
  <v type="int" >        3 </v>
  <v type="int" >       13 </v>
  <v type="int" >       11 </v>
  <v type="int" >        9 </v>
  <v type="int" >       20 </v>
  <v type="int" >        5 </v>
  <v type="int" >       12 </v>
  <v type="int" >        4 </v>
  <v type="int" >       18 </v>
  <v type="int" >       17 </v>
  <v type="int" >        7 </v>
  <v type="int" >        2 </v>
  <v type="int" >        8 </v>
  <v type="int" >       10 </v>
  <v type="int" >       16 </v>
  <v type="int" >       14 </v>
 </varray>
 <kpoints>
  <generation param="Gamma">
   <v type="int" name="divisions">       2        2        3 </v>
   <v name="usershift">      0.00000000       0.00000000       0.00000000 </v>
   <v name="genvec1">      0.50000000      -0.00000000       0.00000000 </v>
   <v name="genvec2">     -0.00000000       0.50000000       0.00000000 </v>
   <v name="genvec3">      0.00000000       0.00000000       0.33333333 </v>
   <v name="shift">      0.00000000       0.00000000       0.00000000 </v>
  </generation>
  <varray name="kpointlist" >
   <v>       0.00000000       0.00000000       0.00000000 </v>
   <v>       0.50000000       0.00000000      -0.00000000 </v>
   <v>      -0.00000000       0.50000000       0.00000000 </v>
   <v>       0.50000000       0.50000000      -0.00000000 </v>
   <v>       0.00000000       0.00000000       0.33333333 </v>
   <v>       0.50000000      -0.00000000       0.33333333 </v>
   <v>       0.00000000       0.50000000       0.33333333 </v>
   <v>       0.50000000       0.50000000       0.33333333 </v>
  </varray>
  <varray name="weights" >
   <v>       0.08333333 </v>
   <v>       0.08333333 </v>
   <v>       0.08333333 </v>
   <v>       0.08333333 </v>
   <v>       0.16666667 </v>
   <v>       0.16666667 </v>
   <v>       0.16666667 </v>
   <v>       0.16666667 </v>
  </varray>
 </kpoints>
 <parameters>
  <separator name="general" >
   <i type="string" name="SYSTEM">unknown system</i>
   <i type="logical" name="LCOMPAT"> F  </i>
  </separator>
  <separator name="electronic" >
   <i type="string" name="PREC">normal</i>
   <i name="ENMAX">    267.88200000</i>
   <i name="ENAUG">    511.36800000</i>
   <i name="EDIFF">      0.00001000</i>
   <i type="int" name="IALGO">    38</i>
   <i type="int" name="IWAVPR">    11</i>
   <i type="int" name="NBANDS">    68</i>
   <i name="NELECT">    109.00000000</i>
   <i type="int" name="TURBO">     0</i>
   <i type="int" name="IRESTART">     0</i>
   <i type="int" name="NREBOOT">     0</i>
   <i type="int" name="NMIN">     0</i>
   <i name="EREF">      0.00000000</i>
   <separator name="electronic smearing" >
    <i type="int" name="ISMEAR">     0</i>
    <i name="SIGMA">      0.10000000</i>
    <i name="KSPACING">      0.50000000</i>
    <i type="logical" name="KGAMMA"> T  </i>
   </separator>
   <separator name="electronic projectors" >
    <i type="logical" name="LREAL"> F  </i>
    <v name="ROPT">      0.00000000      0.00000000</v>
    <i type="int" name="LMAXPAW">  -100</i>
    <i type="int" name="LMAXMIX">     2</i>
    <i type="logical" name="NLSPLINE"> F  </i>
   </separator>
   <separator name="electronic startup" >
    <i type="int" name="ISTART">     0</i>
    <i type="int" name="ICHARG">     2</i>
    <i type="int" name="INIWAV">     1</i>
   </separator>
   <separator name="electronic spin" >
    <i type="int" name="ISPIN">     1</i>
    <i type="logical" name="LNONCOLLINEAR"> F  </i>
    <v name="MAGMOM">      1.00000000      1.00000000      1.00000000      1.00000000      1.00000000      1.00000000      1.00000000      1.00000000      1.00000000      1.00000000      1.00000000      1.00000000      1.00000000      1.00000000      1.00000000      1.00000000      1.00000000      1.00000000      1.00000000      1.00000000
</v>
    <i name="NUPDOWN">     -1.00000000</i>
    <i type="logical" name="LSORBIT"> F  </i>
    <v name="SAXIS">      0.00000000      0.00000000      1.00000000</v>
    <i type="logical" name="LSPIRAL"> F  </i>
    <v name="QSPIRAL">      0.00000000      0.00000000      0.00000000</v>
    <i type="logical" name="LZEROZ"> F  </i>
   </separator>
   <separator name="electronic exchange-correlation" >
    <i type="logical" name="LASPH"> F  </i>
    <i type="logical" name="LMETAGGA"> F  </i>
   </separator>
   <separator name="electronic convergence" >
    <i type="int" name="NELM">    60</i>
    <i type="int" name="NELMDL">    -5</i>
    <i type="int" name="NELMIN">     2</i>
    <i name="ENINI">    267.88200000</i>
    <separator name="electronic convergence detail" >
     <i type="logical" name="LDIAG"> T  </i>
     <i type="logical" name="LSUBROT"> F  </i>
     <i name="WEIMIN">      0.00100000</i>
     <i name="EBREAK">      0.00000004</i>
     <i name="DEPER">      0.30000000</i>
     <i type="int" name="NRMM">     4</i>
     <i name="TIME">      0.40000000</i>
    </separator>
   </separator>
   <separator name="electronic mixer" >
    <i name="AMIX">      0.40000000</i>
    <i name="BMIX">      1.00000000</i>
    <i name="AMIN">      0.10000000</i>
    <i name="AMIX_MAG">      1.60000000</i>
    <i name="BMIX_MAG">      1.00000000</i>
    <separator name="electronic mixer details" >
     <i type="int" name="IMIX">     4</i>
     <i type="logical" name="MIXFIRST"> F  </i>
     <i type="int" name="MAXMIX">   -45</i>
     <i name="WC">    100.00000000</i>
     <i type="int" name="INIMIX">     1</i>
     <i type="int" name="MIXPRE">     1</i>
     <i type="int" name="MREMOVE">     5</i>
    </separator>
   </separator>
   <separator name="electronic dipolcorrection" >
    <i type="logical" name="LDIPOL"> F  </i>
    <i type="logical" name="LMONO"> F  </i>
    <i type="int" name="IDIPOL">     0</i>
    <i name="EPSILON">      1.00000000</i>
    <v name="DIPOL">   -100.00000000   -100.00000000   -100.00000000</v>
    <i name="EFIELD">      0.00000000</i>
   </separator>
  </separator>
  <separator name="grids" >
   <i type="int" name="NGX">    28</i>
   <i type="int" name="NGY">    40</i>
   <i type="int" name="NGZ">    18</i>
   <i type="int" name="NGXF">    56</i>
   <i type="int" name="NGYF">    80</i>
   <i type="int" name="NGZF">    36</i>
   <i type="logical" name="ADDGRID"> F  </i>
  </separator>
  <separator name="ionic" >
   <i type="int" name="NSW">   500</i>
   <i type="int" name="IBRION">     2</i>
   <i type="int" name="MDALGO">     0</i>
   <i type="int" name="ISIF">     3</i>
   <i name="PSTRESS">      0.00000000</i>
   <i name="EDIFFG">     -0.01000000</i>
   <i type="int" name="NFREE">     1</i>
   <i name="POTIM">      0.50000000</i>
   <i name="SMASS">     -3.00000000</i>
   <i name="SCALEE">      1.00000000</i>
  </separator>
  <separator name="ionic md" >
   <i name="TEBEG">      0.00010000</i>
   <i name="TEEND">      0.00010000</i>
   <i type="int" name="NBLOCK">     1</i>
   <i type="int" name="KBLOCK">   500</i>
   <i type="int" name="NPACO">   256</i>
   <i name="APACO">     16.00000000</i>
  </separator>
  <separator name="symmetry" >
   <i type="int" name="ISYM">     2</i>
   <i name="SYMPREC">      0.00001000</i>
  </separator>
  <separator name="dos" >
   <i type="int" name="LORBIT">     0</i>
   <v name="RWIGS">     -1.00000000     -1.00000000</v>
   <i type="int" name="NEDOS">   301</i>
   <i name="EMIN">     10.00000000</i>
   <i name="EMAX">    -10.00000000</i>
   <i name="EFERMI">      0.00000000</i>
  </separator>
  <separator name="writing" >
   <i type="int" name="NWRITE">     2</i>
   <i type="logical" name="LWAVE"> F  </i>
   <i type="logical" name="LDOWNSAMPLE"> F  </i>
   <i type="logical" name="LCHARG"> F  </i>
   <i type="logical" name="LPARD"> F  </i>
   <i type="logical" name="LVTOT"> F  </i>
   <i type="logical" name="LVHAR"> F  </i>
   <i type="logical" name="LELF"> F  </i>
   <i type="logical" name="LOPTICS"> F  </i>
   <v name="STM">      0.00000000      0.00000000      0.00000000      0.00000000      0.00000000      0.00000000      0.00000000</v>
  </separator>
  <separator name="performance" >
   <i type="int" name="NPAR">     4</i>
   <i type="int" name="NSIM">     4</i>
   <i type="int" name="NBLK">    -1</i>
   <i type="logical" name="LPLANE"> T  </i>
   <i type="logical" name="LSCALAPACK"> T  </i>
   <i type="logical" name="LSCAAWARE"> F  </i>
   <i type="logical" name="LSCALU"> F  </i>
   <i type="logical" name="LASYNC"> F  </i>
   <i type="logical" name="LORBITALREAL"> F  </i>
  </separator>
  <separator name="miscellaneous" >
   <i type="int" name="IDIOT">     3</i>
   <i type="int" name="ISPECIAL">     0</i>
   <i type="logical" name="LMUSIC"> F  </i>
   <v name="POMASS">     50.94100000     55.84700000</v>
   <v name="DARWINR">      0.00000000      0.00000000</v>
   <v name="DARWINV">      1.00000000      1.00000000</v>
   <i type="logical" name="LCORR"> T  </i>
  </separator>
  <i type="logical" name="GGA_COMPAT"> T  </i>
  <i type="logical" name="LBERRY"> F  </i>
  <i type="int" name="ICORELEVEL">     0</i>
  <i type="logical" name="LDAU"> F  </i>
  <i type="int" name="I_CONSTRAINED_M">     0</i>
  <separator name="electronic exchange-correlation" >
   <i type="string" name="GGA">--</i>
   <i type="int" name="VOSKOWN">     0</i>
   <i type="logical" name="LHFCALC"> F  </i>
   <i type="string" name="PRECFOCK"></i>
   <i type="logical" name="LSYMGRAD"> F  </i>
   <i type="logical" name="LHFONE"> F  </i>
   <i type="logical" name="LRHFCALC"> F  </i>
   <i type="logical" name="LTHOMAS"> F  </i>
   <i type="logical" name="LMODELHF"> F  </i>
   <i name="ENCUT4O">     -1.00000000</i>
   <i type="int" name="EXXOEP">     0</i>
   <i type="int" name="FOURORBIT">     0</i>
   <i name="AEXX">      0.00000000</i>
   <i name="HFALPHA">      0.00000000</i>
   <i name="MCALPHA">      0.00000000</i>
   <i name="ALDAX">      1.00000000</i>
   <i name="AGGAX">      1.00000000</i>
   <i name="ALDAC">      1.00000000</i>
   <i name="AGGAC">      1.00000000</i>
   <i type="int" name="NKREDX">     1</i>
   <i type="int" name="NKREDY">     1</i>
   <i type="int" name="NKREDZ">     1</i>
   <i type="logical" name="SHIFTRED"> F  </i>
   <i type="logical" name="ODDONLY"> F  </i>
   <i type="logical" name="EVENONLY"> F  </i>
   <i type="int" name="LMAXFOCK">     0</i>
   <i type="int" name="NMAXFOCKAE">     0</i>
   <i type="logical" name="LFOCKAEDFT"> F  </i>
   <i name="HFSCREEN">      0.00000000</i>
   <i name="HFSCREENC">      0.00000000</i>
   <i type="int" name="NBANDSGWLOW">     0</i>
  </separator>
  <separator name="vdW DFT" >
   <i type="logical" name="LUSE_VDW"> F  </i>
   <i name="Zab_VDW">     -0.84910000</i>
   <i name="PARAM1">      0.12340000</i>
   <i name="PARAM2">      1.00000000</i>
   <i name="PARAM3">      0.00000000</i>
  </separator>
  <separator name="model GW" >
   <i type="int" name="MODEL_GW">     0</i>
   <i name="MODEL_EPS0">      7.55676213</i>
   <i name="MODEL_ALPHA">      1.00000000</i>
  </separator>
  <separator name="linear response parameters" >
   <i type="logical" name="LEPSILON"> F  </i>
   <i type="logical" name="LRPA"> F  </i>
   <i type="logical" name="LNABLA"> F  </i>
   <i type="logical" name="LVEL"> F  </i>
   <i type="int" name="KINTER">     0</i>
   <i name="CSHIFT">      0.10000000</i>
   <i name="OMEGAMAX">     -1.00000000</i>
   <i name="DEG_THRESHOLD">      0.00200000</i>
   <i name="RTIME">     -0.10000000</i>
   <i name="WPLASMAI">      0.00000000</i>
   <v name="DFIELD">      0.00000000      0.00000000      0.00000000</v>
   <v name="WPLASMA">      0.00000000      0.00000000      0.00000000      0.00000000      0.00000000      0.00000000      0.00000000      0.00000000      0.00000000</v>
  </separator>
  <separator name="orbital magnetization" >
   <i type="logical" name="NUCIND"> F  </i>
   <v name="MAGPOS">      0.00000000      0.00000000      0.00000000</v>
   <i type="logical" name="LNICSALL"> T  </i>
   <i type="logical" name="ORBITALMAG"> F  </i>
   <i type="logical" name="LMAGBLOCH"> F  </i>
   <i type="logical" name="LCHIMAG"> F  </i>
   <i type="logical" name="LGAUGE"> T  </i>
   <i type="int" name="MAGATOM">     0</i>
   <v name="MAGDIPOL">      0.00000000      0.00000000      0.00000000</v>
   <v name="AVECCONST">      0.00000000      0.00000000      0.00000000</v>
  </separator>
  <separator name="response functions" >
   <i type="logical" name="LADDER"> F  </i>
   <i type="logical" name="LRPAFORCE"> F  </i>
   <i type="logical" name="LFXC"> F  </i>
   <i type="logical" name="LHARTREE"> T  </i>
   <i type="int" name="IBSE">     0</i>
   <v type="int" name="KPOINT">    -1     0     0     0</v>
   <i type="logical" name="LTCTE"> F  </i>
   <i type="logical" name="LTETE"> F  </i>
   <i type="logical" name="LTRIPLET"> F  </i>
   <i type="logical" name="LFXCEPS"> F  </i>
   <i type="logical" name="LFXHEG"> F  </i>
   <i type="int" name="NATURALO">     2</i>
   <i type="logical" name="L2ORDER"> F  </i>
   <i type="logical" name="LMP2LT"> F  </i>
   <i type="logical" name="LUSEW"> F  </i>
   <i name="ENCUTGW">     -2.00000000</i>
   <i name="ENCUTGWSOFT">     -2.00000000</i>
   <i name="ENCUTLF">     -1.00000000</i>
   <i type="int" name="LMAXMP2">    -1</i>
   <i name="SCISSOR">      0.00000000</i>
   <i type="int" name="NOMEGA">     0</i>
   <i type="int" name="NOMEGAR">     0</i>
   <i type="int" name="NBANDSGW">    -1</i>
   <i type="int" name="NBANDSO">    -1</i>
   <i type="int" name="NBANDSV">    -1</i>
   <i type="int" name="NELM">     1</i>
   <i type="int" name="NELMHF">     1</i>
   <i type="int" name="DIM">     3</i>
   <i type="int" name="ANTIRES">     0</i>
   <i name="OMEGAMAX">    -30.00000000</i>
   <i name="OMEGAMIN">    -30.00000000</i>
   <i name="OMEGATL">   -200.00000000</i>
   <i type="int" name="OMEGAGRID">   140</i>
   <i name="CSHIFT">     -0.10000000</i>
   <i type="logical" name="SELFENERGY"> F  </i>
   <i type="logical" name="LSPECTRAL"> F  </i>
   <i type="logical" name="LSPECTRALGW"> F  </i>
   <i type="logical" name="LSINGLES"> F  </i>
   <i type="logical" name="LFERMIGW"> F  </i>
   <i type="logical" name="ODDONLYGW"> F  </i>
   <i type="logical" name="EVENONLYGW"> F  </i>
   <i type="int" name="NKREDLFX">     1</i>
   <i type="int" name="NKREDLFY">     1</i>
   <i type="int" name="NKREDLFZ">     1</i>
   <i type="int" name="MAXMEM">  2800</i>
   <i type="int" name="TELESCOPE">     0</i>
   <i type="int" name="TAUPAR">     1</i>
   <i type="int" name="OMEGAPAR">    -1</i>
   <i name="LAMBDA">      1.00000000</i>
  </separator>
  <separator name="External order field" >
   <i name="OFIELD_KAPPA">      0.00000000</i>
   <v name="OFIELD_K">      0.00000000      0.00000000      0.00000000</v>
   <i name="OFIELD_Q6_NEAR">      0.00000000</i>
   <i name="OFIELD_Q6_FAR">      0.00000000</i>
   <i name="OFIELD_A">      0.00000000</i>
  </separator>
 </parameters>
 <atominfo>
  <atoms>      20 </atoms>
  <types>       2 </types>
  <array name="atoms" >
   <dimension dim="1">ion</dimension>
   <field type="string">element</field>
   <field type="int">atomtype</field>
   <set>
    <rc><c>V </c><c>   1</c></rc>
    <rc><c>V </c><c>   1</c></rc>
    <rc><c>V </c><c>   1</c></rc>
    <rc><c>V </c><c>   1</c></rc>
    <rc><c>V </c><c>   1</c></rc>
    <rc><c>V </c><c>   1</c></rc>
    <rc><c>V </c><c>   1</c></rc>
    <rc><c>V </c><c>   1</c></rc>
    <rc><c>V </c><c>   1</c></rc>
    <rc><c>V </c><c>   1</c></rc>
    <rc><c>V </c><c>   1</c></rc>
    <rc><c>V </c><c>   1</c></rc>
    <rc><c>V </c><c>   1</c></rc>
    <rc><c>V </c><c>   1</c></rc>
    <rc><c>V </c><c>   1</c></rc>
    <rc><c>V </c><c>   1</c></rc>
    <rc><c>V </c><c>   1</c></rc>
    <rc><c>Fe</c><c>   2</c></rc>
    <rc><c>Fe</c><c>   2</c></rc>
    <rc><c>Fe</c><c>   2</c></rc>
   </set>
  </array>
  <array name="atomtypes" >
   <dimension dim="1">type</dimension>
   <field type="int">atomspertype</field>
   <field type="string">element</field>
   <field>mass</field>
   <field>valence</field>
   <field type="string">pseudopotential</field>
   <set>
    <rc><c>  17</c><c>V </c><c>     50.94100000</c><c>      5.00000000</c><c>  PAW_PBE V 08Apr2002                   </c></rc>
    <rc><c>   3</c><c>Fe</c><c>     55.84700000</c><c>      8.00000000</c><c>  PAW_PBE Fe 06Sep2000                  </c></rc>
   </set>
  </array>
 </atominfo>
 <structure name="initialpos" >
  <crystal>
   <varray name="basis" >
    <v>       6.37427700       0.03944400      -0.00058200 </v>
    <v>      -1.82021700       9.53839900      -0.00175500 </v>
    <v>       0.00007400       0.00082200       4.13804800 </v>
   </varray>
   <i name="volume">    251.89207112 </i>
   <varray name="rec_basis" >
    <v>       0.15669550       0.02990227      -0.00000874 </v>
    <v>      -0.00064798       0.10471574      -0.00002079 </v>
    <v>       0.00002176       0.00004862       0.24165983 </v>
   </varray>
  </crystal>
  <varray name="positions" >
   <v>       0.19445100       0.19280800       0.79167700 </v>
   <v>       0.20092100       0.69554600       0.79119400 </v>
   <v>       0.09859300       0.03809700       0.29177600 </v>
   <v>       0.09154800       0.53993600       0.29114500 </v>
   <v>       0.49695400       0.14101300       0.29167600 </v>
   <v>       0.29728400       0.34182200       0.29141600 </v>
   <v>       0.68937100       0.93837900       0.29167300 </v>
   <v>       0.90201000       0.74193700       0.29124300 </v>
   <v>       0.89683000       0.24175400       0.29161500 </v>
   <v>       0.49187200       0.64415400       0.29113600 </v>
   <v>       0.60219800       0.29125400       0.79151300 </v>
   <v>       0.99115300       0.89053000       0.79161100 </v>
   <v>       0.39842400       0.98788400       0.79173200 </v>
   <v>       0.59271800       0.78917500       0.79135000 </v>
   <v>       0.79652800       0.08831600       0.79169500 </v>
   <v>       0.79277500       0.59268000       0.79107500 </v>
   <v>       0.69220500       0.44428300       0.29121900 </v>
   <v>       0.29581600       0.83963600       0.29150200 </v>
   <v>       0.99588400       0.39398100       0.79133600 </v>
   <v>       0.38570300       0.49018900       0.79117000 </v>
  </varray>
 </structure>
 <calculation>
  <scstep>
   <time name="dav">    1.45    1.45</time>
   <time name="total">    1.50    1.51</time>
   <energy>
    <i name="alphaZ">    568.19985339 </i>
    <i name="ewald">  -5366.30828633 </i>
    <i name="hartreedc">   -782.28329448 </i>
    <i name="XCdc">   -769.73630572 </i>
    <i name="pawpsdc">   5171.05454107 </i>
    <i name="pawaedc">  -4356.08836938 </i>
    <i name="eentropy">     -0.06230753 </i>
    <i name="bandstr">   1480.93281394 </i>
    <i name="atom">   4687.48422623 </i>
    <i name="e_fr_energy">    633.19287118 </i>
    <i name="e_wo_entrp">    633.25517871 </i>
    <i name="e_0_energy">    633.22402494 </i>
   </energy>
  </scstep>
  <scstep>
   <time name="dav">    1.41    1.67</time>
   <time name="total">    1.42    1.69</time>
   <energy>
    <i name="e_fr_energy">    -78.65827367 </i>
    <i name="e_wo_entrp">    -78.59117276 </i>
    <i name="e_0_energy">    -78.62472322 </i>
   </energy>
  </scstep>
  <scstep>
   <time name="dav">    2.66    2.76</time>
   <time name="total">    2.66    2.76</time>
   <energy>
    <i name="e_fr_energy">   -196.43787209 </i>
    <i name="e_wo_entrp">   -196.37479364 </i>
    <i name="e_0_energy">   -196.40633286 </i>
   </energy>
  </scstep>
  <scstep>
   <time name="dav">    1.93    2.65</time>
   <time name="total">    1.93    2.65</time>
   <energy>
    <i name="e_fr_energy">   -207.94365992 </i>
    <i name="e_wo_entrp">   -207.87422052 </i>
    <i name="e_0_energy">   -207.90894022 </i>
   </energy>
  </scstep>
  <scstep>
   <time name="dav">    2.00    2.00</time>
   <time name="total">    2.05    2.06</time>
   <energy>
    <i name="e_fr_energy">   -208.50790644 </i>
    <i name="e_wo_entrp">   -208.43551683 </i>
    <i name="e_0_energy">   -208.47171164 </i>
   </energy>
  </scstep>
  <scstep>
   <time name="dav">    2.46    2.65</time>
   <time name="total">    2.57    2.75</time>
   <energy>
    <i name="e_fr_energy">   -240.20496627 </i>
    <i name="e_wo_entrp">   -240.07632342 </i>
    <i name="e_0_energy">   -240.14064485 </i>
   </energy>
  </scstep>
  <scstep>
   <time name="dav">    2.22    2.31</time>
   <time name="total">    2.32    2.41</time>
   <energy>
    <i name="e_fr_energy">   -182.91069833 </i>
    <i name="e_wo_entrp">   -182.80686025 </i>
    <i name="e_0_energy">   -182.85877929 </i>
   </energy>
  </scstep>
  <scstep>
   <time name="dav">    2.35    2.35</time>
   <time name="total">    2.44    2.44</time>
   <energy>
    <i name="e_fr_energy">   -205.89743633 </i>
    <i name="e_wo_entrp">   -205.78631390 </i>
    <i name="e_0_energy">   -205.84187512 </i>
   </energy>
  </scstep>
  <scstep>
   <time name="dav">    2.80    3.55</time>
   <time name="total">    2.89    3.67</time>
   <energy>
    <i name="e_fr_energy">   -180.06059385 </i>
    <i name="e_wo_entrp">   -179.94741016 </i>
    <i name="e_0_energy">   -180.00400201 </i>
   </energy>
  </scstep>
  <scstep>
   <time name="dav">    3.12    3.54</time>
   <time name="total">    3.26    3.74</time>
   <energy>
    <i name="e_fr_energy">   -179.48666483 </i>
    <i name="e_wo_entrp">   -179.38104283 </i>
    <i name="e_0_energy">   -179.43385383 </i>
   </energy>
  </scstep>
  <scstep>
   <time name="dav">    2.56    2.68</time>
   <time name="total">    2.71    2.88</time>
   <energy>
    <i name="e_fr_energy">   -179.35870387 </i>
    <i name="e_wo_entrp">   -179.25130882 </i>
    <i name="e_0_energy">   -179.30500634 </i>
   </energy>
  </scstep>
  <scstep>
   <time name="dav">    2.94    3.34</time>
   <time name="total">    3.05    3.45</time>
   <energy>
    <i name="e_fr_energy">   -179.33972250 </i>
    <i name="e_wo_entrp">   -179.23292921 </i>
    <i name="e_0_energy">   -179.28632585 </i>
   </energy>
  </scstep>
  <scstep>
   <time name="dav">    2.43    2.67</time>
   <time name="total">    2.53    2.82</time>
   <energy>
    <i name="e_fr_energy">   -179.14350561 </i>
    <i name="e_wo_entrp">   -179.02606695 </i>
    <i name="e_0_energy">   -179.08478628 </i>
   </energy>
  </scstep>
  <scstep>
   <time name="dav">    2.71    3.33</time>
   <time name="total">    2.82    3.45</time>
   <energy>
    <i name="e_fr_energy">   -179.05722861 </i>
    <i name="e_wo_entrp">   -178.94201457 </i>
    <i name="e_0_energy">   -178.99962159 </i>
   </energy>
  </scstep>
  <scstep>
   <time name="dav">    2.96    3.19</time>
   <time name="total">    3.06    3.33</time>
   <energy>
    <i name="e_fr_energy">   -178.77528320 </i>
    <i name="e_wo_entrp">   -178.65921268 </i>
    <i name="e_0_energy">   -178.71724794 </i>
   </energy>
  </scstep>
  <scstep>
   <time name="dav">    2.64    2.78</time>
   <time name="total">    2.74    2.89</time>
   <energy>
    <i name="e_fr_energy">   -178.74311014 </i>
    <i name="e_wo_entrp">   -178.62689130 </i>
    <i name="e_0_energy">   -178.68500072 </i>
   </energy>
  </scstep>
  <scstep>
   <time name="dav">    2.44    2.94</time>
   <time name="total">    2.55    3.05</time>
   <energy>
    <i name="e_fr_energy">   -178.76601949 </i>
    <i name="e_wo_entrp">   -178.64901050 </i>
    <i name="e_0_energy">   -178.70751499 </i>
   </energy>
  </scstep>
  <scstep>
   <time name="dav">    2.57    2.93</time>
   <time name="total">    2.68    3.07</time>
   <energy>
    <i name="e_fr_energy">   -178.75039896 </i>
    <i name="e_wo_entrp">   -178.63386958 </i>
    <i name="e_0_energy">   -178.69213427 </i>
   </energy>
  </scstep>
  <scstep>
   <time name="dav">    2.35    2.55</time>
   <time name="total">    2.46    2.65</time>
   <energy>
    <i name="e_fr_energy">   -178.71923485 </i>
    <i name="e_wo_entrp">   -178.60280686 </i>
    <i name="e_0_energy">   -178.66102086 </i>
   </energy>
  </scstep>
  <scstep>
   <time name="dav">    2.17    2.47</time>
   <time name="total">    2.27    2.58</time>
   <energy>
    <i name="e_fr_energy">   -178.71304716 </i>
    <i name="e_wo_entrp">   -178.59682986 </i>
    <i name="e_0_energy">   -178.65493851 </i>
   </energy>
  </scstep>
  <scstep>
   <time name="dav">    2.36    2.41</time>
   <time name="total">    2.46    2.51</time>
   <energy>
    <i name="e_fr_energy">   -178.70924640 </i>
    <i name="e_wo_entrp">   -178.59314191 </i>
    <i name="e_0_energy">   -178.65119415 </i>
   </energy>
  </scstep>
  <scstep>
   <time name="dav">    2.55    3.13</time>
   <time name="total">    2.65    3.24</time>
   <energy>
    <i name="e_fr_energy">   -178.70809646 </i>
    <i name="e_wo_entrp">   -178.59203832 </i>
    <i name="e_0_energy">   -178.65006739 </i>
   </energy>
  </scstep>
  <scstep>
   <time name="dav">    2.19    2.87</time>
   <time name="total">    2.32    3.01</time>
   <energy>
    <i name="e_fr_energy">   -178.70681687 </i>
    <i name="e_wo_entrp">   -178.59085513 </i>
    <i name="e_0_energy">   -178.64883600 </i>
   </energy>
  </scstep>
  <scstep>
   <time name="dav">    2.30    3.13</time>
   <time name="total">    2.44    3.28</time>
   <energy>
    <i name="e_fr_energy">   -178.70668590 </i>
    <i name="e_wo_entrp">   -178.59071412 </i>
    <i name="e_0_energy">   -178.64870001 </i>
   </energy>
  </scstep>
  <scstep>
   <time name="dav">    2.43    3.39</time>
   <time name="total">    2.56    3.55</time>
   <energy>
    <i name="e_fr_energy">   -178.70660716 </i>
    <i name="e_wo_entrp">   -178.59069427 </i>
    <i name="e_0_energy">   -178.64865072 </i>
   </energy>
  </scstep>
  <scstep>
   <time name="dav">    2.19    2.85</time>
   <time name="total">    2.24    2.89</time>
   <energy>
    <i name="alphaZ">    568.19985339 </i>
    <i name="ewald">  -5366.30828633 </i>
    <i name="hartreedc">   -611.25546011 </i>
    <i name="XCdc">   -768.01228848 </i>
    <i name="pawpsdc">   7772.53334661 </i>
    <i name="pawaedc">  -6970.47503307 </i>
    <i name="eentropy">     -0.11590933 </i>
    <i name="bandstr">    509.24294132 </i>
    <i name="atom">   4687.48422623 </i>
    <i name="e_fr_energy">   -178.70660978 </i>
    <i name="e_wo_entrp">   -178.59070046 </i>
    <i name="e_0_energy">   -178.64865512 </i>
   </energy>
  </scstep>
  <structure>
   <crystal>
    <varray name="basis" >
     <v>       6.37427700       0.03944400      -0.00058200 </v>
     <v>      -1.82021700       9.53839900      -0.00175500 </v>
     <v>       0.00007400       0.00082200       4.13804800 </v>
    </varray>
    <i name="volume">    251.89207112 </i>
    <varray name="rec_basis" >
     <v>       0.15669550       0.02990227      -0.00000874 </v>
     <v>      -0.00064798       0.10471574      -0.00002079 </v>
     <v>       0.00002176       0.00004862       0.24165983 </v>
    </varray>
   </crystal>
   <varray name="positions" >
    <v>       0.19445100       0.19280800       0.79167700 </v>
    <v>       0.20092100       0.69554600       0.79119400 </v>
    <v>       0.09859300       0.03809700       0.29177600 </v>
    <v>       0.09154800       0.53993600       0.29114500 </v>
    <v>       0.49695400       0.14101300       0.29167600 </v>
    <v>       0.29728400       0.34182200       0.29141600 </v>
    <v>       0.68937100       0.93837900       0.29167300 </v>
    <v>       0.90201000       0.74193700       0.29124300 </v>
    <v>       0.89683000       0.24175400       0.29161500 </v>
    <v>       0.49187200       0.64415400       0.29113600 </v>
    <v>       0.60219800       0.29125400       0.79151300 </v>
    <v>       0.99115300       0.89053000       0.79161100 </v>
    <v>       0.39842400       0.98788400       0.79173200 </v>
    <v>       0.59271800       0.78917500       0.79135000 </v>
    <v>       0.79652800       0.08831600       0.79169500 </v>
    <v>       0.79277500       0.59268000       0.79107500 </v>
    <v>       0.69220500       0.44428300       0.29121900 </v>
    <v>       0.29581600       0.83963600       0.29150200 </v>
    <v>       0.99588400       0.39398100       0.79133600 </v>
    <v>       0.38570300       0.49018900       0.79117000 </v>
   </varray>
  </structure>
  <varray name="forces" >
   <v>       0.06980819      -0.03691521      -0.00222555 </v>
   <v>      -0.06660571      -0.44447136       0.00154129 </v>
   <v>       0.03629552       0.22997727      -0.00183711 </v>
   <v>      -0.10506665      -0.23554878       0.00039188 </v>
   <v>      -0.06491706       0.17148101       0.00012298 </v>
   <v>       0.02771164       0.43210329       0.00095203 </v>
   <v>      -0.09671463       0.03972944      -0.00138591 </v>
   <v>       0.13259003      -0.11936126       0.00174537 </v>
   <v>      -0.09257472       0.24955836      -0.00084867 </v>
   <v>      -0.01004945      -0.48108221       0.00135939 </v>
   <v>      -0.31232472       0.30585043      -0.00072794 </v>
   <v>       0.18079757       0.11675196      -0.00229100 </v>
   <v>      -0.33940978       0.09268249      -0.00199673 </v>
   <v>       0.17449365       0.04197656       0.00159876 </v>
   <v>       0.06019131       0.13465914       0.00000785 </v>
   <v>      -0.05495453      -0.47474298       0.00307820 </v>
   <v>       0.22016003      -0.14398581       0.00023266 </v>
   <v>      -0.08069459       0.01096142      -0.00101116 </v>
   <v>      -0.06537705      -0.16886891       0.00022276 </v>
   <v>       0.38664095       0.27924517       0.00107091 </v>
  </varray>
  <varray name="stress" >
   <v>       4.66163992      -0.21815505       0.08887572 </v>
   <v>      -0.21815512     -13.79800514      -0.00737950 </v>
   <v>       0.08887561      -0.00737950       3.77471304 </v>
  </varray>
  <energy>
   <i name="e_fr_energy">   -178.70660978 </i>
   <i name="e_wo_entrp">   -178.64865512 </i>
   <i name="e_0_energy">     -0.11590933 </i>
  </energy>
  <time name="totalsc">   67.21   77.07</time>
 </calculation>
 <calculation>
  <scstep>
   <time name="dav">    1.49    1.76</time>
   <time name="total">    1.58    1.89</time>
   <energy>
    <i name="alphaZ">    569.36565364 </i>
    <i name="ewald">  -5368.08719439 </i>
    <i name="hartreedc">   -613.54446693 </i>
    <i name="XCdc">   -767.88202053 </i>
    <i name="pawpsdc">   7772.47234376 </i>
    <i name="pawaedc">  -6970.41539727 </i>
    <i name="eentropy">     -0.11542707 </i>
    <i name="bandstr">    511.92918589 </i>
    <i name="atom">   4687.48422623 </i>
    <i name="e_fr_energy">   -178.79309667 </i>
    <i name="e_wo_entrp">   -178.67766961 </i>
    <i name="e_0_energy">   -178.73538314 </i>
   </energy>
  </scstep>
  <scstep>
   <time name="dav">    2.47    2.60</time>
   <time name="total">    2.58    2.70</time>
   <energy>
    <i name="e_fr_energy">   -179.09949762 </i>
    <i name="e_wo_entrp">   -178.98576452 </i>
    <i name="e_0_energy">   -179.04263107 </i>
   </energy>
  </scstep>
  <scstep>
   <time name="dav">    2.66    3.15</time>
   <time name="total">    2.77    3.26</time>
   <energy>
    <i name="e_fr_energy">   -178.78941775 </i>
    <i name="e_wo_entrp">   -178.67617785 </i>
    <i name="e_0_energy">   -178.73279780 </i>
   </energy>
  </scstep>
  <scstep>
   <time name="dav">    2.96    2.97</time>
   <time name="total">    3.07    3.07</time>
   <energy>
    <i name="e_fr_energy">   -178.78603283 </i>
    <i name="e_wo_entrp">   -178.67224486 </i>
    <i name="e_0_energy">   -178.72913885 </i>
   </energy>
  </scstep>
  <scstep>
   <time name="dav">    2.56    2.82</time>
   <time name="total">    2.66    2.92</time>
   <energy>
    <i name="e_fr_energy">   -178.78985370 </i>
    <i name="e_wo_entrp">   -178.67591665 </i>
    <i name="e_0_energy">   -178.73288518 </i>
   </energy>
  </scstep>
  <scstep>
   <time name="dav">    2.44    3.46</time>
   <time name="total">    2.54    3.62</time>
   <energy>
    <i name="e_fr_energy">   -178.78260158 </i>
    <i name="e_wo_entrp">   -178.66942714 </i>
    <i name="e_0_energy">   -178.72601436 </i>
   </energy>
  </scstep>
  <scstep>
   <time name="dav">    2.70    2.96</time>
   <time name="total">    2.85    3.11</time>
   <energy>
    <i name="e_fr_energy">   -178.78419533 </i>
    <i name="e_wo_entrp">   -178.67098391 </i>
    <i name="e_0_energy">   -178.72758962 </i>
   </energy>
  </scstep>
  <scstep>
   <time name="dav">    2.75    2.98</time>
   <time name="total">    2.91    3.14</time>
   <energy>
    <i name="e_fr_energy">   -178.78149835 </i>
    <i name="e_wo_entrp">   -178.66817398 </i>
    <i name="e_0_energy">   -178.72483617 </i>
   </energy>
  </scstep>
  <scstep>
   <time name="dav">    2.46    2.48</time>
   <time name="total">    2.56    2.58</time>
   <energy>
    <i name="e_fr_energy">   -178.78130137 </i>
    <i name="e_wo_entrp">   -178.66795295 </i>
    <i name="e_0_energy">   -178.72462716 </i>
   </energy>
  </scstep>
  <scstep>
   <time name="dav">    2.20    3.61</time>
   <time name="total">    2.31    3.71</time>
   <energy>
    <i name="e_fr_energy">   -178.78128873 </i>
    <i name="e_wo_entrp">   -178.66793431 </i>
    <i name="e_0_energy">   -178.72461152 </i>
   </energy>
  </scstep>
  <scstep>
   <time name="dav">    2.71    3.01</time>
   <time name="total">    2.81    3.13</time>
   <energy>
    <i name="e_fr_energy">   -178.78125990 </i>
    <i name="e_wo_entrp">   -178.66789758 </i>
    <i name="e_0_energy">   -178.72457874 </i>
   </energy>
  </scstep>
  <scstep>
   <time name="dav">    1.70    2.83</time>
   <time name="total">    1.74    2.91</time>
   <energy>
    <i name="alphaZ">    569.36565364 </i>
    <i name="ewald">  -5368.08719439 </i>
    <i name="hartreedc">   -612.46486087 </i>
    <i name="XCdc">   -767.91381013 </i>
    <i name="pawpsdc">   7789.12252110 </i>
    <i name="pawaedc">  -6987.16775180 </i>
    <i name="eentropy">     -0.11337773 </i>
    <i name="bandstr">    510.99334232 </i>
    <i name="atom">   4687.48422623 </i>
    <i name="e_fr_energy">   -178.78125164 </i>
    <i name="e_wo_entrp">   -178.66787391 </i>
    <i name="e_0_energy">   -178.72456277 </i>
   </energy>
  </scstep>
  <structure>
   <crystal>
    <varray name="basis" >
     <v>       6.38554244       0.03871025      -0.00036810 </v>
     <v>      -1.82422404       9.48863852      -0.00184556 </v>
     <v>       0.00021353       0.00080611       4.14397158 </v>
    </varray>
    <i name="volume">    251.37631145 </i>
    <varray name="rec_basis" >
     <v>       0.15642146       0.03007257      -0.00001391 </v>
     <v>      -0.00063814       0.10526651      -0.00002044 </v>
     <v>       0.00001361       0.00004955       0.24131439 </v>
    </varray>
   </crystal>
   <varray name="positions" >
    <v>       0.19492546       0.19261933       0.79165104 </v>
    <v>       0.19977632       0.69330272       0.79121086 </v>
    <v>       0.09919913       0.03925766       0.29175516 </v>
    <v>       0.09041396       0.53874935       0.29114891 </v>
    <v>       0.49671064       0.14188131       0.29167777 </v>
    <v>       0.29811682       0.34400402       0.29142814 </v>
    <v>       0.68869721       0.93858273       0.29165683 </v>
    <v>       0.90284011       0.74132987       0.29126321 </v>
    <v>       0.89649019       0.24301761       0.29160559 </v>
    <v>       0.49110204       0.64172400       0.29115071 </v>
    <v>       0.60027822       0.29280885       0.79150490 </v>
    <v>       0.99268815       0.89111415       0.79158475 </v>
    <v>       0.39599196       0.98836282       0.79170858 </v>
    <v>       0.59409762       0.78938160       0.79136892 </v>
    <v>       0.79717727       0.08899438       0.79169547 </v>
    <v>       0.79167473       0.59028342       0.79110972 </v>
    <v>       0.69366157       0.44354873       0.29122161 </v>
    <v>       0.29522181       0.83969390       0.29149015 </v>
    <v>       0.99514618       0.39312996       0.79133813 </v>
    <v>       0.38902861       0.49158759       0.79118355 </v>
   </varray>
  </structure>
  <varray name="forces" >
   <v>       0.00238063       0.05580307      -0.00138427 </v>
   <v>      -0.00203641      -0.25577173       0.00107055 </v>
   <v>      -0.03351863       0.14765401      -0.00226353 </v>
   <v>       0.00098298      -0.12218422       0.00103187 </v>
   <v>      -0.07535390       0.13939216      -0.00063096 </v>
   <v>      -0.02717858       0.20683564       0.00041303 </v>
   <v>      -0.04789666       0.01323427      -0.00107136 </v>
   <v>       0.07240030      -0.07919919       0.00115154 </v>
   <v>      -0.05815700       0.09368257      -0.00090422 </v>
   <v>       0.06238203      -0.18556022       0.00166326 </v>
   <v>      -0.17817514       0.10213824      -0.00040551 </v>
   <v>       0.08933555       0.04824248      -0.00136711 </v>
   <v>      -0.15493155       0.01964697      -0.00141175 </v>
   <v>       0.06954004       0.00564019       0.00060893 </v>
   <v>      -0.01334842       0.09315988      -0.00049214 </v>
   <v>       0.01154383      -0.19721991       0.00226227 </v>
   <v>       0.09873989      -0.09414671       0.00068027 </v>
   <v>      -0.03067207      -0.03274286      -0.00047938 </v>
   <v>       0.00569024      -0.12809140       0.00030032 </v>
   <v>       0.20827288       0.16948676       0.00122819 </v>
  </varray>
  <varray name="stress" >
   <v>       3.26023641       1.03482434       0.03249561 </v>
   <v>       1.03482427       0.25976028       0.00431267 </v>
   <v>       0.03249559       0.00431282       3.63925926 </v>
  </varray>
  <energy>
   <i name="e_fr_energy">   -178.78125164 </i>
   <i name="e_wo_entrp">   -178.72456277 </i>
   <i name="e_0_energy">     -0.11337773 </i>
  </energy>
  <time name="totalsc">   33.17   39.64</time>
 </calculation>
 <calculation>
  <scstep>
   <time name="dav">    1.46    2.00</time>
   <time name="total">    1.56    2.10</time>
   <energy>
    <i name="alphaZ">    570.22864041 </i>
    <i name="ewald">  -5368.85580679 </i>
    <i name="hartreedc">   -614.58279191 </i>
    <i name="XCdc">   -767.81657049 </i>
    <i name="pawpsdc">   7789.13816760 </i>
    <i name="pawaedc">  -6987.18249621 </i>
    <i name="eentropy">     -0.11379169 </i>
    <i name="bandstr">    512.89697458 </i>
    <i name="atom">   4687.48422623 </i>
    <i name="e_fr_energy">   -178.80344826 </i>
    <i name="e_wo_entrp">   -178.68965658 </i>
    <i name="e_0_energy">   -178.74655242 </i>
   </energy>
  </scstep>
  <scstep>
   <time name="dav">    2.65    3.36</time>
   <time name="total">    2.75    3.46</time>
   <energy>
    <i name="e_fr_energy">   -178.96575420 </i>
    <i name="e_wo_entrp">   -178.85234751 </i>
    <i name="e_0_energy">   -178.90905086 </i>
   </energy>
  </scstep>
  <scstep>
   <time name="dav">    2.85    2.93</time>
   <time name="total">    2.94    3.07</time>
   <energy>
    <i name="e_fr_energy">   -178.80172313 </i>
    <i name="e_wo_entrp">   -178.68905128 </i>
    <i name="e_0_energy">   -178.74538720 </i>
   </energy>
  </scstep>
  <scstep>
   <time name="dav">    2.22    2.22</time>
   <time name="total">    2.37    2.37</time>
   <energy>
    <i name="e_fr_energy">   -178.79976486 </i>
    <i name="e_wo_entrp">   -178.68655157 </i>
    <i name="e_0_energy">   -178.74315822 </i>
   </energy>
  </scstep>
  <scstep>
   <time name="dav">    2.29    2.29</time>
   <time name="total">    2.43    2.44</time>
   <energy>
    <i name="e_fr_energy">   -178.80167293 </i>
    <i name="e_wo_entrp">   -178.68841407 </i>
    <i name="e_0_energy">   -178.74504350 </i>
   </energy>
  </scstep>
  <scstep>
   <time name="dav">    2.49    3.74</time>
   <time name="total">    2.59    3.88</time>
   <energy>
    <i name="e_fr_energy">   -178.79816455 </i>
    <i name="e_wo_entrp">   -178.68535932 </i>
    <i name="e_0_energy">   -178.74176194 </i>
   </energy>
  </scstep>
  <scstep>
   <time name="dav">    2.55    2.59</time>
   <time name="total">    2.65    2.69</time>
   <energy>
    <i name="e_fr_energy">   -178.79891088 </i>
    <i name="e_wo_entrp">   -178.68623242 </i>
    <i name="e_0_energy">   -178.74257165 </i>
   </energy>
  </scstep>
  <scstep>
   <time name="dav">    2.70    4.00</time>
   <time name="total">    2.80    4.19</time>
   <energy>
    <i name="e_fr_energy">   -178.79745431 </i>
    <i name="e_wo_entrp">   -178.68456423 </i>
    <i name="e_0_energy">   -178.74100927 </i>
   </energy>
  </scstep>
  <scstep>
   <time name="dav">    2.78    3.34</time>
   <time name="total">    2.89    3.48</time>
   <energy>
    <i name="e_fr_energy">   -178.79740836 </i>
    <i name="e_wo_entrp">   -178.68450425 </i>
    <i name="e_0_energy">   -178.74095631 </i>
   </energy>
  </scstep>
  <scstep>
   <time name="dav">    2.64    2.64</time>
   <time name="total">    2.81    2.82</time>
   <energy>
    <i name="e_fr_energy">   -178.79739505 </i>
    <i name="e_wo_entrp">   -178.68451389 </i>
    <i name="e_0_energy">   -178.74095447 </i>
   </energy>
  </scstep>
  <scstep>
   <time name="dav">    2.29    3.02</time>
   <time name="total">    2.43    3.23</time>
   <energy>
    <i name="e_fr_energy">   -178.79737769 </i>
    <i name="e_wo_entrp">   -178.68447769 </i>
    <i name="e_0_energy">   -178.74092769 </i>
   </energy>
  </scstep>
  <scstep>
   <time name="dav">    1.36    1.36</time>
   <time name="total">    1.41    1.41</time>
   <energy>
    <i name="alphaZ">    570.22864041 </i>
    <i name="ewald">  -5368.85580679 </i>
    <i name="hartreedc">   -613.85979183 </i>
    <i name="XCdc">   -767.83752092 </i>
    <i name="pawpsdc">   7803.59795675 </i>
    <i name="pawaedc">  -7001.73150388 </i>
    <i name="eentropy">     -0.11290262 </i>
    <i name="bandstr">    512.28933062 </i>
    <i name="atom">   4687.48422623 </i>
    <i name="e_fr_energy">   -178.79737203 </i>
    <i name="e_wo_entrp">   -178.68446941 </i>
    <i name="e_0_energy">   -178.74092072 </i>
   </energy>
  </scstep>
  <structure>
   <crystal>
    <varray name="basis" >
     <v>       6.39375322       0.03817546      -0.00021220 </v>
     <v>      -1.82714456       9.45237076      -0.00191156 </v>
     <v>       0.00031523       0.00079453       4.14828897 </v>
    </varray>
    <i name="volume">    250.99587733 </i>
    <varray name="rec_basis" >
     <v>       0.15622235       0.03019780      -0.00001766 </v>
     <v>      -0.00063094       0.10567160      -0.00002019 </v>
     <v>       0.00000770       0.00005024       0.24106323 </v>
    </varray>
   </crystal>
   <varray name="positions" >
    <v>       0.19527037       0.19248113       0.79163213 </v>
    <v>       0.19894001       0.69165907       0.79122313 </v>
    <v>       0.09964193       0.04010807       0.29173999 </v>
    <v>       0.08958703       0.53787986       0.29115177 </v>
    <v>       0.49653492       0.14251748       0.29167908 </v>
    <v>       0.29872614       0.34560275       0.29143699 </v>
    <v>       0.68820729       0.93873195       0.29164510 </v>
    <v>       0.90344315       0.74088510       0.29127787 </v>
    <v>       0.89624491       0.24394338       0.29159878 </v>
    <v>       0.49053807       0.63994358       0.29116140 </v>
    <v>       0.59888384       0.29394791       0.79149911 </v>
    <v>       0.99380599       0.89154224       0.79156561 </v>
    <v>       0.39422321       0.98871349       0.79169164 </v>
    <v>       0.59510172       0.78953305       0.79138264 </v>
    <v>       0.79765071       0.08949145       0.79169580 </v>
    <v>       0.79087048       0.58852748       0.79113498 </v>
    <v>       0.69472020       0.44301086       0.29122343 </v>
    <v>       0.29478958       0.83973628       0.29148155 </v>
    <v>       0.99460805       0.39250638       0.79133970 </v>
    <v>       0.39145041       0.49261250       0.79119330 </v>
   </varray>
  </structure>
  <varray name="forces" >
   <v>      -0.04961998       0.12022561      -0.00072703 </v>
   <v>       0.03931576      -0.10988683       0.00074786 </v>
   <v>      -0.08223879       0.08714618      -0.00254124 </v>
   <v>       0.08140290      -0.02782265       0.00147229 </v>
   <v>      -0.08448525       0.11845030      -0.00113913 </v>
   <v>      -0.07307157       0.02560116      -0.00004108 </v>
   <v>      -0.01339613      -0.00671341      -0.00081232 </v>
   <v>       0.02925663      -0.05302676       0.00072834 </v>
   <v>      -0.03122168      -0.03194779      -0.00093339 </v>
   <v>       0.11594278       0.04794672       0.00188040 </v>
   <v>      -0.07888139      -0.06461248      -0.00018691 </v>
   <v>       0.02236912       0.00040239      -0.00067808 </v>
   <v>      -0.01803312      -0.03393384      -0.00097654 </v>
   <v>      -0.00231192      -0.00794932      -0.00010825 </v>
   <v>      -0.06415613       0.05850876      -0.00083016 </v>
   <v>       0.06609858       0.02215486       0.00167663 </v>
   <v>       0.00852553      -0.05641298       0.00097786 </v>
   <v>       0.00482106      -0.06692207      -0.00015803 </v>
   <v>       0.05454478      -0.09649555       0.00031007 </v>
   <v>       0.07513881       0.07528768       0.00133870 </v>
  </varray>
  <varray name="stress" >
   <v>       2.07509105       1.84156246      -0.01069509 </v>
   <v>       1.84156239      11.04071711       0.01512770 </v>
   <v>      -0.01069513       0.01512791       3.23067253 </v>
  </varray>
  <energy>
   <i name="e_fr_energy">   -178.79737203 </i>
   <i name="e_wo_entrp">   -178.74092072 </i>
   <i name="e_0_energy">     -0.11290262 </i>
  </energy>
  <time name="totalsc">   32.37   38.10</time>
 </calculation>
 <calculation>
  <scstep>
   <time name="dav">    1.73    1.84</time>
   <time name="total">    1.86    1.97</time>
   <energy>
    <i name="alphaZ">    566.42830581 </i>
    <i name="ewald">  -5355.94583145 </i>
    <i name="hartreedc">   -613.41940304 </i>
    <i name="XCdc">   -768.23128164 </i>
    <i name="pawpsdc">   7803.61661729 </i>
    <i name="pawaedc">  -7001.74957545 </i>
    <i name="eentropy">     -0.11540610 </i>
    <i name="bandstr">    503.09666045 </i>
    <i name="atom">   4687.48422623 </i>
    <i name="e_fr_energy">   -178.83568789 </i>
    <i name="e_wo_entrp">   -178.72028178 </i>
    <i name="e_0_energy">   -178.77798484 </i>
   </energy>
  </scstep>
  <scstep>
   <time name="dav">    2.85    3.59</time>
   <time name="total">    2.98    3.72</time>
   <energy>
    <i name="e_fr_energy">   -180.18848671 </i>
    <i name="e_wo_entrp">   -180.06769600 </i>
    <i name="e_0_energy">   -180.12809135 </i>
   </energy>
  </scstep>
  <scstep>
   <time name="dav">    2.34    3.30</time>
   <time name="total">    2.44    3.45</time>
   <energy>
    <i name="e_fr_energy">   -178.79296742 </i>
    <i name="e_wo_entrp">   -178.67722626 </i>
    <i name="e_0_energy">   -178.73509684 </i>
   </energy>
  </scstep>
  <scstep>
   <time name="dav">    2.99    3.01</time>
   <time name="total">    3.13    3.15</time>
   <energy>
    <i name="e_fr_energy">   -178.82050835 </i>
    <i name="e_wo_entrp">   -178.70410159 </i>
    <i name="e_0_energy">   -178.76230497 </i>
   </energy>
  </scstep>
  <scstep>
   <time name="dav">    2.42    2.44</time>
   <time name="total">    2.56    2.57</time>
   <energy>
    <i name="e_fr_energy">   -178.81003338 </i>
    <i name="e_wo_entrp">   -178.69372009 </i>
    <i name="e_0_energy">   -178.75187673 </i>
   </energy>
  </scstep>
  <scstep>
   <time name="dav">    2.76    2.76</time>
   <time name="total">    2.94    2.94</time>
   <energy>
    <i name="e_fr_energy">   -178.80600965 </i>
    <i name="e_wo_entrp">   -178.68983848 </i>
    <i name="e_0_energy">   -178.74792406 </i>
   </energy>
  </scstep>
  <scstep>
   <time name="dav">    3.24    4.19</time>
   <time name="total">    3.37    4.36</time>
   <energy>
    <i name="e_fr_energy">   -178.80618947 </i>
    <i name="e_wo_entrp">   -178.69006927 </i>
    <i name="e_0_energy">   -178.74812937 </i>
   </energy>
  </scstep>
  <scstep>
   <time name="dav">    2.32    2.71</time>
   <time name="total">    2.44    2.83</time>
   <energy>
    <i name="e_fr_energy">   -178.80483100 </i>
    <i name="e_wo_entrp">   -178.68862311 </i>
    <i name="e_0_energy">   -178.74672705 </i>
   </energy>
  </scstep>
  <scstep>
   <time name="dav">    2.48    2.49</time>
   <time name="total">    2.58    2.59</time>
   <energy>
    <i name="e_fr_energy">   -178.80507220 </i>
    <i name="e_wo_entrp">   -178.68879774 </i>
    <i name="e_0_energy">   -178.74693497 </i>
   </energy>
  </scstep>
  <scstep>
   <time name="dav">    3.05    3.18</time>
   <time name="total">    3.15    3.31</time>
   <energy>
    <i name="e_fr_energy">   -178.80477186 </i>
    <i name="e_wo_entrp">   -178.68850683 </i>
    <i name="e_0_energy">   -178.74663935 </i>
   </energy>
  </scstep>
  <scstep>
   <time name="dav">    3.19    4.66</time>
   <time name="total">    3.32    4.86</time>
   <energy>
    <i name="e_fr_energy">   -178.80477159 </i>
    <i name="e_wo_entrp">   -178.68848665 </i>
    <i name="e_0_energy">   -178.74662912 </i>
   </energy>
  </scstep>
  <scstep>
   <time name="dav">    2.53    3.20</time>
   <time name="total">    2.63    3.32</time>
   <energy>
    <i name="e_fr_energy">   -178.80475115 </i>
    <i name="e_wo_entrp">   -178.68847475 </i>
    <i name="e_0_energy">   -178.74661295 </i>
   </energy>
  </scstep>
  <scstep>
   <time name="dav">    1.08    1.08</time>
   <time name="total">    1.12    1.12</time>
   <energy>
    <i name="alphaZ">    566.42830581 </i>
    <i name="ewald">  -5355.94583145 </i>
    <i name="hartreedc">   -617.25195425 </i>
    <i name="XCdc">   -768.13790182 </i>
    <i name="pawpsdc">   7741.63760517 </i>
    <i name="pawaedc">  -6939.32293754 </i>
    <i name="eentropy">     -0.11627924 </i>
    <i name="bandstr">    506.42001735 </i>
    <i name="atom">   4687.48422623 </i>
    <i name="e_fr_energy">   -178.80474974 </i>
    <i name="e_wo_entrp">   -178.68847050 </i>
    <i name="e_0_energy">   -178.74661012 </i>
   </energy>
  </scstep>
  <structure>
   <crystal>
    <varray name="basis" >
     <v>       6.40164346       0.04331950      -0.00020159 </v>
     <v>      -1.82200052       9.48686789      -0.00186085 </v>
     <v>       0.00032321       0.00082280       4.15520313 </v>
    </varray>
    <i name="volume">    252.67988271 </i>
    <varray name="rec_basis" >
     <v>       0.15600714       0.02996195      -0.00001807 </v>
     <v>      -0.00071237       0.10527205      -0.00002079 </v>
     <v>       0.00000725       0.00004860       0.24066211 </v>
    </varray>
   </crystal>
   <varray name="positions" >
    <v>       0.19513099       0.19314947       0.79161789 </v>
    <v>       0.19888090       0.69059206       0.79123595 </v>
    <v>       0.09919118       0.04083922       0.29170244 </v>
    <v>       0.09003104       0.53749032       0.29117208 </v>
    <v>       0.49595826       0.14337631       0.29166453 </v>
    <v>       0.29829482       0.34616704       0.29143875 </v>
    <v>       0.68795479       0.93873167       0.29163124 </v>
    <v>       0.90376179       0.74045968       0.29129120 </v>
    <v>       0.89585943       0.24399655       0.29158450 </v>
    <v>       0.49147391       0.63976054       0.29118938 </v>
    <v>       0.59773760       0.29386692       0.79149494 </v>
    <v>       0.99428674       0.89165420       0.79155166 </v>
    <v>       0.39355727       0.98860629       0.79167420 </v>
    <v>       0.59532612       0.78952577       0.79138469 </v>
    <v>       0.79731601       0.08996361       0.79168496 </v>
    <v>       0.79127123       0.58820183       0.79116389 </v>
    <v>       0.69497100       0.44254239       0.29123677 </v>
    <v>       0.29460865       0.83935614       0.29147706 </v>
    <v>       0.99477969       0.39178007       0.79134399 </v>
    <v>       0.39284656       0.49331392       0.79121387 </v>
   </varray>
  </structure>
  <varray name="forces" >
   <v>      -0.06585355       0.07016184      -0.00079529 </v>
   <v>       0.05992883      -0.01702775       0.00076216 </v>
   <v>      -0.07604302       0.02695550      -0.00163684 </v>
   <v>       0.06103339      -0.02543267       0.00144276 </v>
   <v>      -0.08161808       0.04511913      -0.00112685 </v>
   <v>      -0.02253212       0.00579644      -0.00014019 </v>
   <v>      -0.00687376       0.00092410      -0.00070910 </v>
   <v>       0.03816981      -0.01735083       0.00056428 </v>
   <v>      -0.04236353      -0.02554373      -0.00078923 </v>
   <v>       0.08868950       0.08029305       0.00141174 </v>
   <v>      -0.02563716      -0.02787562      -0.00026415 </v>
   <v>      -0.02487631      -0.00802829      -0.00058893 </v>
   <v>      -0.01195480      -0.03202201      -0.00085425 </v>
   <v>       0.02481498       0.00064186       0.00000949 </v>
   <v>      -0.07017145      -0.01008813      -0.00114190 </v>
   <v>       0.06540692       0.02597634       0.00132501 </v>
   <v>       0.00558892      -0.01755068       0.00108045 </v>
   <v>       0.01990876      -0.04757495      -0.00019901 </v>
   <v>       0.04417086      -0.04107104       0.00041527 </v>
   <v>       0.02021178       0.01369743       0.00123457 </v>
  </varray>
  <varray name="stress" >
   <v>     -10.20449654       1.00087250      -0.01197043 </v>
   <v>       1.00087254      -6.37141243       0.01419612 </v>
   <v>      -0.01197032       0.01419619      -9.71425175 </v>
  </varray>
  <energy>
   <i name="e_fr_energy">   -178.80474974 </i>
   <i name="e_wo_entrp">   -178.74661012 </i>
   <i name="e_0_energy">     -0.11627924 </i>
  </energy>
  <time name="totalsc">   37.24   42.91</time>
 </calculation>
 <calculation>
  <scstep>
   <time name="dav">    1.70    1.70</time>
   <time name="total">    1.84    1.84</time>
   <energy>
    <i name="alphaZ">    567.02906855 </i>
    <i name="ewald">  -5357.99801156 </i>
    <i name="hartreedc">   -617.31324557 </i>
    <i name="XCdc">   -768.07525049 </i>
    <i name="pawpsdc">   7741.40200910 </i>
    <i name="pawaedc">  -6939.09661542 </i>
    <i name="eentropy">     -0.11577531 </i>
    <i name="bandstr">    507.87781492 </i>
    <i name="atom">   4687.48422623 </i>
    <i name="e_fr_energy">   -178.80577957 </i>
    <i name="e_wo_entrp">   -178.69000426 </i>
    <i name="e_0_energy">   -178.74789191 </i>
   </energy>
  </scstep>
  <scstep>
   <time name="dav">    2.49    2.51</time>
   <time name="total">    2.59    2.61</time>
   <energy>
    <i name="e_fr_energy">   -178.84041095 </i>
    <i name="e_wo_entrp">   -178.72432225 </i>
    <i name="e_0_energy">   -178.78236660 </i>
   </energy>
  </scstep>
  <scstep>
   <time name="dav">    2.44    2.65</time>
   <time name="total">    2.54    2.75</time>
   <energy>
    <i name="e_fr_energy">   -178.80481870 </i>
    <i name="e_wo_entrp">   -178.68904486 </i>
    <i name="e_0_energy">   -178.74693178 </i>
   </energy>
  </scstep>
  <scstep>
   <time name="dav">    2.15    2.15</time>
   <time name="total">    2.24    2.25</time>
   <energy>
    <i name="e_fr_energy">   -178.80528803 </i>
    <i name="e_wo_entrp">   -178.68952214 </i>
    <i name="e_0_energy">   -178.74740508 </i>
   </energy>
  </scstep>
  <scstep>
   <time name="dav">    2.16    2.22</time>
   <time name="total">    2.26    2.32</time>
   <energy>
    <i name="e_fr_energy">   -178.80513131 </i>
    <i name="e_wo_entrp">   -178.68938516 </i>
    <i name="e_0_energy">   -178.74725823 </i>
   </energy>
  </scstep>
  <scstep>
   <time name="dav">    2.08    3.14</time>
   <time name="total">    2.20    3.26</time>
   <energy>
    <i name="e_fr_energy">   -178.80504077 </i>
    <i name="e_wo_entrp">   -178.68928818 </i>
    <i name="e_0_energy">   -178.74716448 </i>
   </energy>
  </scstep>
  <scstep>
   <time name="dav">    2.53    2.53</time>
   <time name="total">    2.63    2.63</time>
   <energy>
    <i name="e_fr_energy">   -178.80503316 </i>
    <i name="e_wo_entrp">   -178.68926543 </i>
    <i name="e_0_energy">   -178.74714929 </i>
   </energy>
  </scstep>
  <scstep>
   <time name="dav">    2.28    2.62</time>
   <time name="total">    2.38    2.73</time>
   <energy>
    <i name="e_fr_energy">   -178.80500529 </i>
    <i name="e_wo_entrp">   -178.68924619 </i>
    <i name="e_0_energy">   -178.74712574 </i>
   </energy>
  </scstep>
  <scstep>
   <time name="dav">    1.42    1.42</time>
   <time name="total">    1.47    1.47</time>
   <energy>
    <i name="alphaZ">    567.02906855 </i>
    <i name="ewald">  -5357.99801156 </i>
    <i name="hartreedc">   -616.69977779 </i>
    <i name="XCdc">   -768.08883446 </i>
    <i name="pawpsdc">   7750.14755964 </i>
    <i name="pawaedc">  -6947.90215732 </i>
    <i name="eentropy">     -0.11574992 </i>
    <i name="bandstr">    507.33866668 </i>
    <i name="atom">   4687.48422623 </i>
    <i name="e_fr_energy">   -178.80500996 </i>
    <i name="e_wo_entrp">   -178.68926004 </i>
    <i name="e_0_energy">   -178.74713500 </i>
   </energy>
  </scstep>
  <structure>
   <crystal>
    <varray name="basis" >
     <v>       6.40039108       0.04250301      -0.00020328 </v>
     <v>      -1.82281701       9.48139231      -0.00186890 </v>
     <v>       0.00032194       0.00081831       4.15410568 </v>
    </varray>
    <i name="volume">    252.41217041 </i>
    <varray name="rec_basis" >
     <v>       0.15604124       0.02999924      -0.00001800 </v>
     <v>      -0.00069950       0.10533526      -0.00002070 </v>
     <v>       0.00000732       0.00004886       0.24072569 </v>
    </varray>
   </crystal>
   <varray name="positions" >
    <v>       0.19515328       0.19304376       0.79162015 </v>
    <v>       0.19888995       0.69076081       0.79123392 </v>
    <v>       0.09926284       0.04072355       0.29170839 </v>
    <v>       0.08996055       0.53755196       0.29116886 </v>
    <v>       0.49604992       0.14324044       0.29166684 </v>
    <v>       0.29836335       0.34607777       0.29143847 </v>
    <v>       0.68799481       0.93873170       0.29163344 </v>
    <v>       0.90371116       0.74052699       0.29128908 </v>
    <v>       0.89592055       0.24398811       0.29158677 </v>
    <v>       0.49132552       0.63978957       0.29118495 </v>
    <v>       0.59791926       0.29387963       0.79149560 </v>
    <v>       0.99421057       0.89163653       0.79155387 </v>
    <v>       0.39366279       0.98862319       0.79167696 </v>
    <v>       0.59529055       0.78952694       0.79138436 </v>
    <v>       0.79736920       0.08988891       0.79168668 </v>
    <v>       0.79120762       0.58825336       0.79115931 </v>
    <v>       0.69493111       0.44261650       0.29123465 </v>
    <v>       0.29463721       0.83941625       0.29147777 </v>
    <v>       0.99475227       0.39189495       0.79134331 </v>
    <v>       0.39262547       0.49320311       0.79121061 </v>
   </varray>
  </structure>
  <varray name="forces" >
   <v>      -0.06266540       0.07896187      -0.00079006 </v>
   <v>       0.05757323      -0.03236810       0.00075922 </v>
   <v>      -0.07626929       0.03665725      -0.00176346 </v>
   <v>       0.06588084      -0.02506308       0.00144907 </v>
   <v>      -0.08131051       0.05662202      -0.00111949 </v>
   <v>      -0.03074471       0.01026001      -0.00013038 </v>
   <v>      -0.00880952      -0.00075057      -0.00073215 </v>
   <v>       0.03719799      -0.02361787       0.00059394 </v>
   <v>      -0.04040361      -0.02585446      -0.00081102 </v>
   <v>       0.09087055       0.07404310       0.00146891 </v>
   <v>      -0.03517012      -0.03248699      -0.00024739 </v>
   <v>      -0.01706765      -0.00749850      -0.00059525 </v>
   <v>      -0.01310916      -0.03313478      -0.00086563 </v>
   <v>       0.01982526      -0.00226464      -0.00001701 </v>
   <v>      -0.06871527       0.00158900      -0.00109765 </v>
   <v>       0.06415036       0.02454313       0.00137391 </v>
   <v>       0.00593626      -0.02290924       0.00106518 </v>
   <v>       0.01816365      -0.05118848      -0.00019211 </v>
   <v>       0.04616110      -0.04869184       0.00039448 </v>
   <v>       0.02850600       0.02315217       0.00125689 </v>
  </varray>
  <varray name="stress" >
   <v>      -7.98662359       1.13435491      -0.01164167 </v>
   <v>       1.13435501      -3.38107449       0.01417708 </v>
   <v>      -0.01164175       0.01417706      -7.39523768 </v>
  </varray>
  <energy>
   <i name="e_fr_energy">   -178.80500996 </i>
   <i name="e_wo_entrp">   -178.74713500 </i>
   <i name="e_0_energy">     -0.11574992 </i>
  </energy>
  <time name="totalsc">   22.80   25.04</time>
 </calculation>
 <calculation>
  <scstep>
   <time name="dav">    1.44    1.47</time>
   <time name="total">    1.54    1.57</time>
   <energy>
    <i name="alphaZ">    568.69321601 </i>
    <i name="ewald">  -5362.45443212 </i>
    <i name="hartreedc">   -618.04696858 </i>
    <i name="XCdc">   -767.91529445 </i>
    <i name="pawpsdc">   7750.62668975 </i>
    <i name="pawaedc">  -6948.39413298 </i>
    <i name="eentropy">     -0.11728504 </i>
    <i name="bandstr">    511.30716508 </i>
    <i name="atom">   4687.48422623 </i>
    <i name="e_fr_energy">   -178.81681609 </i>
    <i name="e_wo_entrp">   -178.69953105 </i>
    <i name="e_0_energy">   -178.75817357 </i>
   </energy>
  </scstep>
  <scstep>
   <time name="dav">    2.43    2.47</time>
   <time name="total">    2.53    2.57</time>
   <energy>
    <i name="e_fr_energy">   -179.03801106 </i>
    <i name="e_wo_entrp">   -178.92043965 </i>
    <i name="e_0_energy">   -178.97922536 </i>
   </energy>
  </scstep>
  <scstep>
   <time name="dav">    2.47    2.48</time>
   <time name="total">    2.57    2.58</time>
   <energy>
    <i name="e_fr_energy">   -178.81220836 </i>
    <i name="e_wo_entrp">   -178.69537436 </i>
    <i name="e_0_energy">   -178.75379136 </i>
   </energy>
  </scstep>
  <scstep>
   <time name="dav">    2.24    2.53</time>
   <time name="total">    2.34    2.63</time>
   <energy>
    <i name="e_fr_energy">   -178.81403915 </i>
    <i name="e_wo_entrp">   -178.69670459 </i>
    <i name="e_0_energy">   -178.75537187 </i>
   </energy>
  </scstep>
  <scstep>
   <time name="dav">    2.17    2.21</time>
   <time name="total">    2.27    2.31</time>
   <energy>
    <i name="e_fr_energy">   -178.81472596 </i>
    <i name="e_wo_entrp">   -178.69732155 </i>
    <i name="e_0_energy">   -178.75602375 </i>
   </energy>
  </scstep>
  <scstep>
   <time name="dav">    2.12    2.12</time>
   <time name="total">    2.22    2.22</time>
   <energy>
    <i name="e_fr_energy">   -178.81233135 </i>
    <i name="e_wo_entrp">   -178.69519742 </i>
    <i name="e_0_energy">   -178.75376439 </i>
   </energy>
  </scstep>
  <scstep>
   <time name="dav">    2.41    2.47</time>
   <time name="total">    2.51    2.57</time>
   <energy>
    <i name="e_fr_energy">   -178.81232795 </i>
    <i name="e_wo_entrp">   -178.69510857 </i>
    <i name="e_0_energy">   -178.75371826 </i>
   </energy>
  </scstep>
  <scstep>
   <time name="dav">    2.46    2.51</time>
   <time name="total">    2.56    2.61</time>
   <energy>
    <i name="e_fr_energy">   -178.81206684 </i>
    <i name="e_wo_entrp">   -178.69481931 </i>
    <i name="e_0_energy">   -178.75344307 </i>
   </energy>
  </scstep>
  <scstep>
   <time name="dav">    2.53    2.54</time>
   <time name="total">    2.63    2.64</time>
   <energy>
    <i name="e_fr_energy">   -178.81215000 </i>
    <i name="e_wo_entrp">   -178.69488425 </i>
    <i name="e_0_energy">   -178.75351713 </i>
   </energy>
  </scstep>
  <scstep>
   <time name="dav">    2.47    2.58</time>
   <time name="total">    2.57    2.69</time>
   <energy>
    <i name="e_fr_energy">   -178.81204854 </i>
    <i name="e_wo_entrp">   -178.69477743 </i>
    <i name="e_0_energy">   -178.75341298 </i>
   </energy>
  </scstep>
  <scstep>
   <time name="dav">    1.82    1.82</time>
   <time name="total">    1.87    1.87</time>
   <energy>
    <i name="alphaZ">    568.69321601 </i>
    <i name="ewald">  -5362.45443212 </i>
    <i name="hartreedc">   -616.36926414 </i>
    <i name="XCdc">   -767.95382539 </i>
    <i name="pawpsdc">   7777.67082040 </i>
    <i name="pawaedc">  -6975.64579204 </i>
    <i name="eentropy">     -0.11724742 </i>
    <i name="bandstr">    509.88025865 </i>
    <i name="atom">   4687.48422623 </i>
    <i name="e_fr_energy">   -178.81203981 </i>
    <i name="e_wo_entrp">   -178.69479240 </i>
    <i name="e_0_energy">   -178.75341611 </i>
   </energy>
  </scstep>
  <structure>
   <crystal>
    <varray name="basis" >
     <v>       6.38630140       0.04818523      -0.00022357 </v>
     <v>      -1.81043984       9.48938270      -0.00177635 </v>
     <v>       0.00030831       0.00085593       4.14691811 </v>
    </varray>
    <i name="volume">    251.67354533 </i>
    <varray name="rec_basis" >
     <v>       0.15636008       0.02983128      -0.00001778 </v>
     <v>      -0.00079397       0.10522945      -0.00002166 </v>
     <v>       0.00000809       0.00004668       0.24114292 </v>
    </varray>
   </crystal>
   <varray name="positions" >
    <v>       0.19472417       0.19382950       0.79160299 </v>
    <v>       0.19922994       0.68996854       0.79125000 </v>
    <v>       0.09849078       0.04133897       0.29166638 </v>
    <v>       0.09066887       0.53719600       0.29119715 </v>
    <v>       0.49519436       0.14402975       0.29164574 </v>
    <v>       0.29789761       0.34646317       0.29143806 </v>
    <v>       0.68777993       0.93872820       0.29161700 </v>
    <v>       0.90413829       0.74015788       0.29130362 </v>
    <v>       0.89536151       0.24389386       0.29156912 </v>
    <v>       0.49264598       0.64004214       0.29121823 </v>
    <v>       0.59693826       0.29367343       0.79149026 </v>
    <v>       0.99436060       0.89166633       0.79153889 </v>
    <v>       0.39312628       0.98839745       0.79165682 </v>
    <v>       0.59556480       0.78951078       0.79138539 </v>
    <v>       0.79667209       0.09017838       0.79166789 </v>
    <v>       0.79194709       0.58817919       0.79119196 </v>
    <v>       0.69509136       0.44222644       0.29125448 </v>
    <v>       0.29459094       0.83893911       0.29147284 </v>
    <v>       0.99512273       0.39122428       0.79135019 </v>
    <v>       0.39369242       0.49373060       0.79123698 </v>
   </varray>
  </structure>
  <varray name="forces" >
   <v>      -0.06302734       0.01888244      -0.00090202 </v>
   <v>       0.06334899       0.02485423       0.00087266 </v>
   <v>      -0.06185049      -0.00244362      -0.00091117 </v>
   <v>       0.04942711      -0.02386008       0.00138273 </v>
   <v>      -0.07398156      -0.01971516      -0.00103692 </v>
   <v>       0.01015771       0.00538614      -0.00019697 </v>
   <v>      -0.01046981       0.01407703      -0.00072687 </v>
   <v>       0.04654574       0.01036904       0.00049149 </v>
   <v>      -0.05203823      -0.01286621      -0.00071409 </v>
   <v>       0.05554147       0.05814335       0.00103178 </v>
   <v>      -0.00011765       0.01776701      -0.00034672 </v>
   <v>      -0.02946305      -0.01302528      -0.00058686 </v>
   <v>      -0.03339790      -0.01041117      -0.00092160 </v>
   <v>       0.04633008       0.00234677       0.00022364 </v>
   <v>      -0.06657486      -0.03638756      -0.00130231 </v>
   <v>       0.05448877       0.00020834       0.00116736 </v>
   <v>       0.01705348       0.00908500       0.00110063 </v>
   <v>       0.02219911      -0.02363025      -0.00027054 </v>
   <v>       0.03106160       0.00262456       0.00050492 </v>
   <v>      -0.00523316      -0.02140458       0.00114088 </v>
  </varray>
  <varray name="stress" >
   <v>       0.12173416      -0.48875915      -0.00392741 </v>
   <v>      -0.48875912      -2.11606422       0.01151085 </v>
   <v>      -0.00392716       0.01151083       0.04516119 </v>
  </varray>
  <energy>
   <i name="e_fr_energy">   -178.81203981 </i>
   <i name="e_wo_entrp">   -178.75341611 </i>
   <i name="e_0_energy">     -0.11724742 </i>
  </energy>
  <time name="totalsc">   28.31   29.27</time>
 </calculation>
 <calculation>
  <scstep>
   <time name="dav">    1.43    1.43</time>
   <time name="total">    1.53    1.54</time>
   <energy>
    <i name="alphaZ">    569.17664543 </i>
    <i name="ewald">  -5363.72992335 </i>
    <i name="hartreedc">   -616.75982826 </i>
    <i name="XCdc">   -767.90382383 </i>
    <i name="pawpsdc">   7777.92125783 </i>
    <i name="pawaedc">  -6975.89531427 </i>
    <i name="eentropy">     -0.11769418 </i>
    <i name="bandstr">    511.01175775 </i>
    <i name="atom">   4687.48422623 </i>
    <i name="e_fr_energy">   -178.81269666 </i>
    <i name="e_wo_entrp">   -178.69500248 </i>
    <i name="e_0_energy">   -178.75384957 </i>
   </energy>
  </scstep>
  <scstep>
   <time name="dav">    2.50    2.69</time>
   <time name="total">    2.60    2.82</time>
   <energy>
    <i name="e_fr_energy">   -178.83123294 </i>
    <i name="e_wo_entrp">   -178.71361499 </i>
    <i name="e_0_energy">   -178.77242397 </i>
   </energy>
  </scstep>
  <scstep>
   <time name="dav">    2.47    2.85</time>
   <time name="total">    2.57    3.00</time>
   <energy>
    <i name="e_fr_energy">   -178.81235716 </i>
    <i name="e_wo_entrp">   -178.69479459 </i>
    <i name="e_0_energy">   -178.75357587 </i>
   </energy>
  </scstep>
  <scstep>
   <time name="dav">    2.21    2.72</time>
   <time name="total">    2.31    2.88</time>
   <energy>
    <i name="e_fr_energy">   -178.81248096 </i>
    <i name="e_wo_entrp">   -178.69478315 </i>
    <i name="e_0_energy">   -178.75363205 </i>
   </energy>
  </scstep>
  <scstep>
   <time name="dav">    2.20    2.20</time>
   <time name="total">    2.30    2.31</time>
   <energy>
    <i name="e_fr_energy">   -178.81254539 </i>
    <i name="e_wo_entrp">   -178.69483994 </i>
    <i name="e_0_energy">   -178.75369266 </i>
   </energy>
  </scstep>
  <scstep>
   <time name="dav">    2.16    2.34</time>
   <time name="total">    2.27    2.44</time>
   <energy>
    <i name="e_fr_energy">   -178.81234168 </i>
    <i name="e_wo_entrp">   -178.69470633 </i>
    <i name="e_0_energy">   -178.75352401 </i>
   </energy>
  </scstep>
  <scstep>
   <time name="dav">    2.34    2.49</time>
   <time name="total">    2.44    2.59</time>
   <energy>
    <i name="e_fr_energy">   -178.81234475 </i>
    <i name="e_wo_entrp">   -178.69467852 </i>
    <i name="e_0_energy">   -178.75351164 </i>
   </energy>
  </scstep>
  <scstep>
   <time name="dav">    2.07    2.07</time>
   <time name="total">    2.17    2.17</time>
   <energy>
    <i name="e_fr_energy">   -178.81232271 </i>
    <i name="e_wo_entrp">   -178.69465603 </i>
    <i name="e_0_energy">   -178.75348937 </i>
   </energy>
  </scstep>
  <scstep>
   <time name="dav">    1.65    2.06</time>
   <time name="total">    1.70    2.11</time>
   <energy>
    <i name="alphaZ">    569.17664543 </i>
    <i name="ewald">  -5363.72992335 </i>
    <i name="hartreedc">   -616.28323482 </i>
    <i name="XCdc">   -767.91424842 </i>
    <i name="pawpsdc">   7785.67132449 </i>
    <i name="pawaedc">  -6983.69423755 </i>
    <i name="eentropy">     -0.11766898 </i>
    <i name="bandstr">    510.59478813 </i>
    <i name="atom">   4687.48422623 </i>
    <i name="e_fr_energy">   -178.81232886 </i>
    <i name="e_wo_entrp">   -178.69465988 </i>
    <i name="e_0_energy">   -178.75349437 </i>
   </energy>
  </scstep>
  <structure>
   <crystal>
    <varray name="basis" >
     <v>       6.38222551       0.04982900      -0.00022944 </v>
     <v>      -1.80685934       9.49169417      -0.00174957 </v>
     <v>       0.00030436       0.00086682       4.14483888 </v>
    </varray>
    <i name="volume">    251.45978674 </i>
    <varray name="rec_basis" >
     <v>       0.15645263       0.02978266      -0.00001772 </v>
     <v>      -0.00082134       0.10519891      -0.00002194 </v>
     <v>       0.00000831       0.00004605       0.24126389 </v>
    </varray>
   </crystal>
   <varray name="positions" >
    <v>       0.19459929       0.19405669       0.79159802 </v>
    <v>       0.19932899       0.68973948       0.79125467 </v>
    <v>       0.09826660       0.04151698       0.29165420 </v>
    <v>       0.09087441       0.53709298       0.29120535 </v>
    <v>       0.49494586       0.14425804       0.29163962 </v>
    <v>       0.29776236       0.34657465       0.29143794 </v>
    <v>       0.68771764       0.93872722       0.29161223 </v>
    <v>       0.90426233       0.74005112       0.29130783 </v>
    <v>       0.89519952       0.24386672       0.29156400 </v>
    <v>       0.49302858       0.64011491       0.29122788 </v>
    <v>       0.59665402       0.29361401       0.79148872 </v>
    <v>       0.99440407       0.89167491       0.79153455 </v>
    <v>       0.39297091       0.98833230       0.79165098 </v>
    <v>       0.59564431       0.78950607       0.79138568 </v>
    <v>       0.79646983       0.09026217       0.79166245 </v>
    <v>       0.79216149       0.58815762       0.79120143 </v>
    <v>       0.69513805       0.44211367       0.29126022 </v>
    <v>       0.29457783       0.83880121       0.29147142 </v>
    <v>       0.99523054       0.39103037       0.79135219 </v>
    <v>       0.39400136       0.49388288       0.79124462 </v>
   </varray>
  </structure>
  <varray name="forces" >
   <v>      -0.06397566       0.00004666      -0.00093911 </v>
   <v>       0.06660670       0.03975932       0.00091362 </v>
   <v>      -0.05850313      -0.01686986      -0.00066374 </v>
   <v>       0.04551290      -0.02061050       0.00135809 </v>
   <v>      -0.07146347      -0.04503277      -0.00100861 </v>
   <v>       0.02216081       0.01078179      -0.00020944 </v>
   <v>      -0.01095659       0.01531662      -0.00072761 </v>
   <v>       0.05020576       0.02080018       0.00045758 </v>
   <v>      -0.05581738      -0.00836499      -0.00068224 </v>
   <v>       0.04412114       0.05313401       0.00089310 </v>
   <v>       0.01046669       0.03639501      -0.00037548 </v>
   <v>      -0.03225931      -0.01710725      -0.00058593 </v>
   <v>      -0.03795950      -0.00746505      -0.00094057 </v>
   <v>       0.05158432       0.00377480       0.00029418 </v>
   <v>      -0.06697020      -0.05060849      -0.00136183 </v>
   <v>       0.05049989      -0.00512520       0.00110446 </v>
   <v>       0.02131739       0.02134966       0.00110810 </v>
   <v>       0.02312404      -0.01617492      -0.00029255 </v>
   <v>       0.02762300       0.01866133       0.00053303 </v>
   <v>      -0.01531741      -0.03266035       0.00112497 </v>
  </varray>
  <varray name="stress" >
   <v>       3.41945048      -0.96216630      -0.00190492 </v>
   <v>      -0.96216619      -0.69907762       0.01016647 </v>
   <v>      -0.00190483       0.01016651       3.19652088 </v>
  </varray>
  <energy>
   <i name="e_fr_energy">   -178.81232886 </i>
   <i name="e_wo_entrp">   -178.75349437 </i>
   <i name="e_0_energy">     -0.11766898 </i>
  </energy>
  <time name="totalsc">   22.69   24.67</time>
 </calculation>
 <calculation>
  <scstep>
   <time name="dav">    1.44    1.44</time>
   <time name="total">    1.54    1.55</time>
   <energy>
    <i name="alphaZ">    568.68014965 </i>
    <i name="ewald">  -5361.72817565 </i>
    <i name="hartreedc">   -616.51704106 </i>
    <i name="XCdc">   -767.96509695 </i>
    <i name="pawpsdc">   7785.90560650 </i>
    <i name="pawaedc">  -6983.93492567 </i>
    <i name="eentropy">     -0.11758669 </i>
    <i name="bandstr">    509.37711448 </i>
    <i name="atom">   4687.48422623 </i>
    <i name="e_fr_energy">   -178.81572917 </i>
    <i name="e_wo_entrp">   -178.69814248 </i>
    <i name="e_0_energy">   -178.75693583 </i>
   </energy>
  </scstep>
  <scstep>
   <time name="dav">    2.45    2.45</time>
   <time name="total">    2.55    2.55</time>
   <energy>
    <i name="e_fr_energy">   -178.85007899 </i>
    <i name="e_wo_entrp">   -178.73312145 </i>
    <i name="e_0_energy">   -178.79160022 </i>
   </energy>
  </scstep>
  <scstep>
   <time name="dav">    2.49    2.50</time>
   <time name="total">    2.60    2.60</time>
   <energy>
    <i name="e_fr_energy">   -178.81568542 </i>
    <i name="e_wo_entrp">   -178.69819452 </i>
    <i name="e_0_energy">   -178.75693997 </i>
   </energy>
  </scstep>
  <scstep>
   <time name="dav">    2.11    2.12</time>
   <time name="total">    2.21    2.22</time>
   <energy>
    <i name="e_fr_energy">   -178.81595740 </i>
    <i name="e_wo_entrp">   -178.69839842 </i>
    <i name="e_0_energy">   -178.75717791 </i>
   </energy>
  </scstep>
  <scstep>
   <time name="dav">    2.09    2.25</time>
   <time name="total">    2.19    2.35</time>
   <energy>
    <i name="e_fr_energy">   -178.81583159 </i>
    <i name="e_wo_entrp">   -178.69823936 </i>
    <i name="e_0_energy">   -178.75703547 </i>
   </energy>
  </scstep>
  <scstep>
   <time name="dav">    2.38    2.39</time>
   <time name="total">    2.48    2.49</time>
   <energy>
[...]
       <r>    7.3361    0.0000 </r>
       <r>    7.4238    0.0000 </r>
       <r>    7.4498    0.0000 </r>
       <r>    7.5206    0.0000 </r>
       <r>    7.6053    0.0000 </r>
       <r>    7.6215    0.0000 </r>
       <r>    7.7177    0.0000 </r>
       <r>    7.7889    0.0000 </r>
      </set>
      <set comment="kpoint 8">
       <r>    1.6141    1.0000 </r>
       <r>    1.8881    1.0000 </r>
       <r>    2.0127    1.0000 </r>
       <r>    2.2701    1.0000 </r>
       <r>    2.9201    1.0000 </r>
       <r>    3.0454    1.0000 </r>
       <r>    3.3624    1.0000 </r>
       <r>    3.4420    1.0000 </r>
       <r>    3.4838    1.0000 </r>
       <r>    3.5921    1.0000 </r>
       <r>    3.6481    1.0000 </r>
       <r>    3.6747    1.0000 </r>
       <r>    3.7691    1.0000 </r>
       <r>    3.8015    1.0000 </r>
       <r>    3.8434    1.0000 </r>
       <r>    3.8512    1.0000 </r>
       <r>    3.8849    1.0000 </r>
       <r>    3.9972    1.0000 </r>
       <r>    4.0159    1.0000 </r>
       <r>    4.0539    1.0000 </r>
       <r>    4.1059    1.0000 </r>
       <r>    4.1243    1.0000 </r>
       <r>    4.7137    1.0000 </r>
       <r>    4.7523    1.0000 </r>
       <r>    4.8254    1.0000 </r>
       <r>    4.8833    1.0000 </r>
       <r>    4.9511    1.0000 </r>
       <r>    5.0596    1.0000 </r>
       <r>    5.1535    1.0000 </r>
       <r>    5.2152    1.0000 </r>
       <r>    5.2377    1.0000 </r>
       <r>    5.2839    1.0000 </r>
       <r>    5.3573    1.0000 </r>
       <r>    5.3681    1.0000 </r>
       <r>    5.4119    1.0000 </r>
       <r>    5.4485    1.0000 </r>
       <r>    5.5177    1.0000 </r>
       <r>    5.5585    1.0000 </r>
       <r>    5.5842    1.0000 </r>
       <r>    5.6156    1.0000 </r>
       <r>    5.7596    1.0000 </r>
       <r>    5.7763    1.0000 </r>
       <r>    5.8089    1.0000 </r>
       <r>    5.9431    1.0000 </r>
       <r>    5.9648    1.0000 </r>
       <r>    6.0289    1.0000 </r>
       <r>    6.0412    1.0000 </r>
       <r>    6.1284    1.0000 </r>
       <r>    6.1667    1.0000 </r>
       <r>    6.2685    1.0000 </r>
       <r>    6.3723    0.9934 </r>
       <r>    6.3948    0.9845 </r>
       <r>    6.5411    0.5353 </r>
       <r>    6.5726    0.3606 </r>
       <r>    6.5864    0.2904 </r>
       <r>    6.6870    0.0242 </r>
       <r>    6.7811    0.0005 </r>
       <r>    6.8343    0.0000 </r>
       <r>    6.9186    0.0000 </r>
       <r>    6.9805    0.0000 </r>
       <r>    7.0907    0.0000 </r>
       <r>    7.1591    0.0000 </r>
       <r>    7.2920    0.0000 </r>
       <r>    7.3675    0.0000 </r>
       <r>    7.4465    0.0000 </r>
       <r>    7.4686    0.0000 </r>
       <r>    7.5770    0.0000 </r>
       <r>    7.7024    0.0000 </r>
      </set>
     </set>
    </set>
   </array>
  </eigenvalues>
  <separator name="orbital magnetization" >
   <v name="MAGDIPOLOUT">      0.00000000      0.00000000      0.00000000</v>
  </separator>
  <dos>
   <i name="efermi">      6.54735060 </i>
   <total>
    <array>
     <dimension dim="1">gridpoints</dimension>
     <dimension dim="2">spin</dimension>
     <field>energy</field>
     <field>total</field>
     <field>integrated</field>
     <set>
      <set comment="spin 1">
       <r>    -1.4113     0.0000     0.0000 </r>
       <r>    -1.3765     0.0000     0.0000 </r>
       <r>    -1.3417     0.0000     0.0000 </r>
       <r>    -1.3070     0.0000     0.0000 </r>
       <r>    -1.2722     0.0000     0.0000 </r>
       <r>    -1.2374     0.0000     0.0000 </r>
       <r>    -1.2026     0.0000     0.0000 </r>
       <r>    -1.1678     0.0000     0.0000 </r>
       <r>    -1.1330     0.0000     0.0000 </r>
       <r>    -1.0982     0.0000     0.0000 </r>
       <r>    -1.0634     0.0000     0.0000 </r>
       <r>    -1.0286     0.0000     0.0000 </r>
       <r>    -0.9938     0.0000     0.0000 </r>
       <r>    -0.9590     0.0000     0.0000 </r>
       <r>    -0.9242     0.0000     0.0000 </r>
       <r>    -0.8894     0.0000     0.0000 </r>
       <r>    -0.8546     0.0000     0.0000 </r>
       <r>    -0.8198     0.0000     0.0000 </r>
       <r>    -0.7850     0.0000     0.0000 </r>
       <r>    -0.7503     0.0000     0.0000 </r>
       <r>    -0.7155     0.0000     0.0000 </r>
       <r>    -0.6807     0.0003     0.0000 </r>
       <r>    -0.6459     0.0018     0.0001 </r>
       <r>    -0.6111     0.0091     0.0004 </r>
       <r>    -0.5763     0.0358     0.0016 </r>
       <r>    -0.5415     0.1102     0.0055 </r>
       <r>    -0.5067     0.2677     0.0148 </r>
       <r>    -0.4719     0.5130     0.0326 </r>
       <r>    -0.4371     0.7755     0.0596 </r>
       <r>    -0.4023     0.9245     0.0918 </r>
       <r>    -0.3675     0.8694     0.1220 </r>
       <r>    -0.3327     0.6450     0.1445 </r>
       <r>    -0.2979     0.3777     0.1576 </r>
       <r>    -0.2631     0.1764     0.1638 </r>
       <r>    -0.2284     0.0743     0.1663 </r>
       <r>    -0.1936     0.0598     0.1684 </r>
       <r>    -0.1588     0.1286     0.1729 </r>
       <r>    -0.1240     0.2945     0.1831 </r>
       <r>    -0.0892     0.5470     0.2022 </r>
       <r>    -0.0544     0.8031     0.2301 </r>
       <r>    -0.0196     0.9317     0.2625 </r>
       <r>     0.0152     0.8597     0.2924 </r>
       <r>     0.0500     0.6529     0.3152 </r>
       <r>     0.0848     0.4717     0.3316 </r>
       <r>     0.1196     0.4491     0.3472 </r>
       <r>     0.1544     0.6013     0.3681 </r>
       <r>     0.1892     0.8176     0.3966 </r>
       <r>     0.2240     0.9327     0.4290 </r>
       <r>     0.2588     0.8498     0.4586 </r>
       <r>     0.2935     0.6129     0.4799 </r>
       <r>     0.3283     0.3526     0.4922 </r>
       <r>     0.3631     0.1765     0.4983 </r>
       <r>     0.3979     0.1256     0.5027 </r>
       <r>     0.4327     0.2062     0.5099 </r>
       <r>     0.4675     0.4156     0.5243 </r>
       <r>     0.5023     0.7225     0.5495 </r>
       <r>     0.5371     1.0650     0.5865 </r>
       <r>     0.5719     1.4180     0.6359 </r>
       <r>     0.6067     1.8451     0.7001 </r>
       <r>     0.6415     2.3973     0.7835 </r>
       <r>     0.6763     2.9474     0.8860 </r>
       <r>     0.7111     3.2234     0.9982 </r>
       <r>     0.7459     3.0587     1.1046 </r>
       <r>     0.7807     2.5461     1.1932 </r>
       <r>     0.8154     1.9439     1.2608 </r>
       <r>     0.8502     1.5176     1.3136 </r>
       <r>     0.8850     1.4559     1.3643 </r>
       <r>     0.9198     1.7928     1.4266 </r>
       <r>     0.9546     2.3253     1.5076 </r>
       <r>     0.9894     2.6769     1.6007 </r>
       <r>     1.0242     2.5571     1.6897 </r>
       <r>     1.0590     2.0001     1.7593 </r>
       <r>     1.0938     1.3395     1.8059 </r>
       <r>     1.1286     0.9695     1.8396 </r>
       <r>     1.1634     1.1334     1.8790 </r>
       <r>     1.1982     1.8306     1.9427 </r>
       <r>     1.2330     2.7779     2.0394 </r>
       <r>     1.2678     3.4876     2.1607 </r>
       <r>     1.3026     3.5694     2.2849 </r>
       <r>     1.3374     3.0695     2.3917 </r>
       <r>     1.3721     2.4786     2.4779 </r>
       <r>     1.4069     2.3422     2.5594 </r>
       <r>     1.4417     2.8195     2.6575 </r>
       <r>     1.4765     3.5766     2.7820 </r>
       <r>     1.5113     4.1015     2.9247 </r>
       <r>     1.5461     4.1413     3.0688 </r>
       <r>     1.5809     3.8301     3.2020 </r>
       <r>     1.6157     3.4540     3.3222 </r>
       <r>     1.6505     3.2195     3.4342 </r>
       <r>     1.6853     3.2053     3.5457 </r>
       <r>     1.7201     3.3414     3.6620 </r>
       <r>     1.7549     3.4152     3.7808 </r>
       <r>     1.7897     3.2675     3.8945 </r>
       <r>     1.8245     2.9962     3.9988 </r>
       <r>     1.8593     2.8484     4.0979 </r>
       <r>     1.8940     2.9631     4.2010 </r>
       <r>     1.9288     3.3307     4.3169 </r>
       <r>     1.9636     3.8871     4.4521 </r>
       <r>     1.9984     4.4590     4.6073 </r>
       <r>     2.0332     4.7013     4.7708 </r>
       <r>     2.0680     4.3143     4.9209 </r>
       <r>     2.1028     3.3708     5.0382 </r>
       <r>     2.1376     2.3401     5.1196 </r>
       <r>     2.1724     1.7823     5.1816 </r>
       <r>     2.2072     2.0239     5.2521 </r>
       <r>     2.2420     3.0025     5.3565 </r>
       <r>     2.2768     4.2612     5.5048 </r>
       <r>     2.3116     5.1189     5.6829 </r>
       <r>     2.3464     5.0519     5.8587 </r>
       <r>     2.3812     4.0668     6.0002 </r>
       <r>     2.4159     2.6998     6.0941 </r>
       <r>     2.4507     1.6257     6.1507 </r>
       <r>     2.4855     1.2772     6.1951 </r>
       <r>     2.5203     1.7450     6.2558 </r>
       <r>     2.5551     2.8220     6.3540 </r>
       <r>     2.5899     4.0577     6.4952 </r>
       <r>     2.6247     4.9404     6.6671 </r>
       <r>     2.6595     5.2190     6.8487 </r>
       <r>     2.6943     5.0348     7.0239 </r>
       <r>     2.7291     4.6959     7.1872 </r>
       <r>     2.7639     4.4444     7.3419 </r>
       <r>     2.7987     4.5427     7.4999 </r>
       <r>     2.8335     5.3990     7.6878 </r>
       <r>     2.8683     7.3171     7.9424 </r>
       <r>     2.9031    10.0568     8.2923 </r>
       <r>     2.9379    12.8017     8.7377 </r>
       <r>     2.9726    14.7212     9.2499 </r>
       <r>     3.0074    15.5745     9.7918 </r>
       <r>     3.0422    15.7340    10.3392 </r>
       <r>     3.0770    15.6970    10.8854 </r>
       <r>     3.1118    15.6506    11.4299 </r>
       <r>     3.1466    15.4739    11.9683 </r>
       <r>     3.1814    15.0900    12.4933 </r>
       <r>     3.2162    14.6976    13.0047 </r>
       <r>     3.2510    14.5763    13.5119 </r>
       <r>     3.2858    14.8136    14.0273 </r>
       <r>     3.3206    15.4089    14.5634 </r>
       <r>     3.3554    16.4892    15.1371 </r>
       <r>     3.3902    18.1353    15.7681 </r>
       <r>     3.4250    20.0371    16.4653 </r>
       <r>     3.4598    21.5954    17.2167 </r>
       <r>     3.4945    22.4736    17.9986 </r>
       <r>     3.5293    22.9251    18.7962 </r>
       <r>     3.5641    23.4725    19.6129 </r>
       <r>     3.5989    24.3319    20.4595 </r>
       <r>     3.6337    25.3133    21.3403 </r>
       <r>     3.6685    26.2728    22.2544 </r>
       <r>     3.7033    27.3997    23.2077 </r>
       <r>     3.7381    28.9056    24.2134 </r>
       <r>     3.7729    30.6461    25.2797 </r>
       <r>     3.8077    32.2622    26.4022 </r>
       <r>     3.8425    33.5542    27.5697 </r>
       <r>     3.8773    34.4938    28.7699 </r>
       <r>     3.9121    34.9509    29.9859 </r>
       <r>     3.9469    34.6632    31.1920 </r>
       <r>     3.9817    33.5715    32.3601 </r>
       <r>     4.0164    32.0843    33.4764 </r>
       <r>     4.0512    30.8508    34.5498 </r>
       <r>     4.0860    30.1252    35.5979 </r>
       <r>     4.1208    29.3593    36.6195 </r>
       <r>     4.1556    27.6404    37.5812 </r>
       <r>     4.1904    24.6490    38.4388 </r>
       <r>     4.2252    21.0757    39.1721 </r>
       <r>     4.2600    18.0831    39.8013 </r>
       <r>     4.2948    16.4397    40.3732 </r>
       <r>     4.3296    16.0391    40.9313 </r>
       <r>     4.3644    16.0453    41.4896 </r>
       <r>     4.3992    15.5769    42.0315 </r>
       <r>     4.4340    14.4987    42.5360 </r>
       <r>     4.4688    13.6367    43.0105 </r>
       <r>     4.5036    14.1310    43.5021 </r>
       <r>     4.5384    16.4857    44.0757 </r>
       <r>     4.5731    20.1726    44.7776 </r>
       <r>     4.6079    24.0499    45.6144 </r>
       <r>     4.6427    27.1377    46.5586 </r>
       <r>     4.6775    29.1222    47.5719 </r>
       <r>     4.7123    30.3222    48.6269 </r>
       <r>     4.7471    31.2679    49.7148 </r>
       <r>     4.7819    32.2534    50.8370 </r>
       <r>     4.8167    33.2040    51.9923 </r>
       <r>     4.8515    33.9036    53.1719 </r>
       <r>     4.8863    34.2578    54.3639 </r>
       <r>     4.9211    34.2804    55.5566 </r>
       <r>     4.9559    33.9430    56.7376 </r>
       <r>     4.9907    33.2181    57.8934 </r>
       <r>     5.0255    32.2406    59.0151 </r>
       <r>     5.0603    31.2719    60.1032 </r>
       <r>     5.0950    30.4975    61.1643 </r>
       <r>     5.1298    29.9687    62.2070 </r>
       <r>     5.1646    29.7533    63.2422 </r>
       <r>     5.1994    30.0578    64.2880 </r>
       <r>     5.2342    31.1041    65.3703 </r>
       <r>     5.2690    32.8393    66.5129 </r>
       <r>     5.3038    34.8212    67.7244 </r>
       <r>     5.3386    36.4914    68.9941 </r>
       <r>     5.3734    37.5652    70.3011 </r>
       <r>     5.4082    38.0796    71.6260 </r>
       <r>     5.4430    38.0779    72.9509 </r>
       <r>     5.4778    37.4222    74.2529 </r>
       <r>     5.5126    36.0343    75.5067 </r>
       <r>     5.5474    34.1872    76.6962 </r>
       <r>     5.5822    32.3980    77.8234 </r>
       <r>     5.6169    31.1402    78.9069 </r>
       <r>     5.6517    30.7293    79.9761 </r>
       <r>     5.6865    31.2002    81.0616 </r>
       <r>     5.7213    32.1053    82.1787 </r>
       <r>     5.7561    32.6869    83.3160 </r>
       <r>     5.7909    32.4495    84.4450 </r>
       <r>     5.8257    31.4928    85.5408 </r>
       <r>     5.8605    30.3398    86.5964 </r>
       <r>     5.8953    29.6260    87.6272 </r>
       <r>     5.9301    29.8874    88.6671 </r>
       <r>     5.9649    31.3716    89.7586 </r>
       <r>     5.9997    33.8839    90.9375 </r>
       <r>     6.0345    36.8019    92.2180 </r>
       <r>     6.0693    39.2909    93.5851 </r>
       <r>     6.1041    40.6456    94.9993 </r>
       <r>     6.1388    40.6382    96.4132 </r>
       <r>     6.1736    39.6093    97.7913 </r>
       <r>     6.2084    38.1027    99.1171 </r>
       <r>     6.2432    36.3801   100.3829 </r>
       <r>     6.2780    34.4091   101.5801 </r>
       <r>     6.3128    32.2661   102.7027 </r>
       <r>     6.3476    30.2870   103.7565 </r>
       <r>     6.3824    28.7654   104.7574 </r>
       <r>     6.4172    27.6835   105.7206 </r>
       <r>     6.4520    26.7780   106.6523 </r>
       <r>     6.4868    25.7673   107.5488 </r>
       <r>     6.5216    24.5119   108.4016 </r>
       <r>     6.5564    23.0017   109.2020 </r>
       <r>     6.5912    21.2379   109.9409 </r>
       <r>     6.6260    19.2172   110.6095 </r>
       <r>     6.6608    17.0002   111.2010 </r>
       <r>     6.6955    14.6998   111.7125 </r>
       <r>     6.7303    12.4824   112.1468 </r>
       <r>     6.7651    10.6384   112.5169 </r>
       <r>     6.7999     9.4818   112.8468 </r>
       <r>     6.8347     9.0842   113.1629 </r>
       <r>     6.8695     9.2401   113.4844 </r>
       <r>     6.9043     9.7183   113.8225 </r>
       <r>     6.9391    10.4461   114.1860 </r>
       <r>     6.9739    11.4989   114.5861 </r>
       <r>     7.0087    13.0288   115.0394 </r>
       <r>     7.0435    15.0993   115.5648 </r>
       <r>     7.0783    17.4599   116.1722 </r>
       <r>     7.1131    19.6183   116.8548 </r>
       <r>     7.1479    21.2476   117.5941 </r>
       <r>     7.1827    22.3807   118.3728 </r>
       <r>     7.2174    23.1880   119.1796 </r>
       <r>     7.2522    23.8276   120.0086 </r>
       <r>     7.2870    24.5906   120.8642 </r>
       <r>     7.3218    25.9283   121.7664 </r>
       <r>     7.3566    28.0769   122.7433 </r>
       <r>     7.3914    30.6148   123.8085 </r>
       <r>     7.4262    32.5269   124.9402 </r>
       <r>     7.4610    32.9176   126.0855 </r>
       <r>     7.4958    31.7764   127.1911 </r>
       <r>     7.5306    29.9825   128.2343 </r>
       <r>     7.5654    28.5152   129.2265 </r>
       <r>     7.6002    27.7210   130.1910 </r>
       <r>     7.6350    27.2766   131.1400 </r>
       <r>     7.6698    26.5888   132.0651 </r>
       <r>     7.7046    25.1082   132.9387 </r>
       <r>     7.7393    22.4908   133.7213 </r>
       <r>     7.7741    18.7443   134.3734 </r>
       <r>     7.8089    14.3122   134.8714 </r>
       <r>     7.8437     9.9636   135.2181 </r>
       <r>     7.8785     6.4679   135.4431 </r>
       <r>     7.9133     4.2117   135.5897 </r>
       <r>     7.9481     3.0516   135.6958 </r>
       <r>     7.9829     2.5182   135.7835 </r>
       <r>     8.0177     2.1514   135.8583 </r>
       <r>     8.0525     1.7077   135.9177 </r>
       <r>     8.0873     1.1789   135.9587 </r>
       <r>     8.1221     0.6832   135.9825 </r>
       <r>     8.1569     0.3256   135.9938 </r>
       <r>     8.1917     0.1259   135.9982 </r>
       <r>     8.2265     0.0392   135.9996 </r>
       <r>     8.2613     0.0097   135.9999 </r>
       <r>     8.2960     0.0019   136.0000 </r>
       <r>     8.3308     0.0003   136.0000 </r>
       <r>     8.3656     0.0000   136.0000 </r>
       <r>     8.4004     0.0000   136.0000 </r>
       <r>     8.4352     0.0000   136.0000 </r>
       <r>     8.4700     0.0000   136.0000 </r>
       <r>     8.5048     0.0000   136.0000 </r>
       <r>     8.5396     0.0000   136.0000 </r>
       <r>     8.5744     0.0000   136.0000 </r>
       <r>     8.6092     0.0000   136.0000 </r>
       <r>     8.6440     0.0000   136.0000 </r>
       <r>     8.6788     0.0000   136.0000 </r>
       <r>     8.7136     0.0000   136.0000 </r>
       <r>     8.7484     0.0000   136.0000 </r>
       <r>     8.7832     0.0000   136.0000 </r>
       <r>     8.8179     0.0000   136.0000 </r>
       <r>     8.8527     0.0000   136.0000 </r>
       <r>     8.8875     0.0000   136.0000 </r>
       <r>     8.9223     0.0000   136.0000 </r>
       <r>     8.9571     0.0000   136.0000 </r>
       <r>     8.9919     0.0000   136.0000 </r>
       <r>     9.0267     0.0000   136.0000 </r>
      </set>
     </set>
    </array>
   </total>
  </dos>
 </calculation>
 <structure name="finalpos" >
  <crystal>
   <varray name="basis" >
    <v>       6.39366674       0.04207235      -0.00030125 </v>
    <v>      -1.82156901       9.48629014      -0.00164995 </v>
    <v>       0.00025677       0.00090014       4.14442675 </v>
   </varray>
   <i name="volume">    251.68613801 </i>
   <varray name="rec_basis" >
    <v>       0.15620740       0.02999513      -0.00001619 </v>
    <v>      -0.00069279       0.10528225      -0.00002282 </v>
    <v>       0.00001108       0.00004409       0.24128788 </v>
   </varray>
  </crystal>
  <varray name="positions" >
   <v>       0.18979652       0.19431335       0.79146474 </v>
   <v>       0.20464694       0.68993138       0.79140363 </v>
   <v>       0.09362674       0.04180907       0.29147637 </v>
   <v>       0.09537220       0.53690868       0.29140619 </v>
   <v>       0.48967278       0.14424719       0.29146610 </v>
   <v>       0.29713634       0.34632406       0.29143705 </v>
   <v>       0.68526261       0.93916121       0.29146658 </v>
   <v>       0.90856258       0.73962367       0.29140819 </v>
   <v>       0.89119466       0.24408608       0.29145593 </v>
   <v>       0.49830284       0.64014312       0.29139817 </v>
   <v>       0.59403217       0.29404079       0.79144366 </v>
   <v>       0.99351756       0.89124529       0.79145193 </v>
   <v>       0.38958949       0.98865863       0.79147525 </v>
   <v>       0.59866183       0.78966785       0.79142089 </v>
   <v>       0.79122855       0.09033857       0.79147436 </v>
   <v>       0.79740901       0.58777640       0.79140034 </v>
   <v>       0.69714885       0.44231660       0.29141430 </v>
   <v>       0.29569515       0.83834743       0.29144154 </v>
   <v>       0.99684645       0.39123807       0.79143377 </v>
   <v>       0.39553473       0.49319655       0.79141499 </v>
  </varray>
 </structure>
</modeling>
