unknown system                          
           1
     6.374277    0.039444   -0.000582
    -1.820217    9.538399   -0.001755
     0.000074    0.000822    4.138048
   V    Fe
  17   3
Direct configuration=     1
   0.19445100  0.19280800  0.79167700
   0.20092100  0.69554600  0.79119400
   0.09859300  0.03809700  0.29177600
   0.09154800  0.53993600  0.29114500
   0.49695400  0.14101300  0.29167600
   0.29728400  0.34182200  0.29141600
   0.68937100  0.93837900  0.29167300
   0.90201000  0.74193700  0.29124300
   0.89683000  0.24175400  0.29161500
   0.49187200  0.64415400  0.29113600
   0.60219800  0.29125400  0.79151300
   0.99115300  0.89053000  0.79161100
   0.39842400  0.98788400  0.79173200
   0.59271800  0.78917500  0.79135000
   0.79652800  0.08831600  0.79169500
   0.79277500  0.59268000  0.79107500
   0.69220500  0.44428300  0.29121900
   0.29581600  0.83963600  0.29150200
   0.99588400  0.39398100  0.79133600
   0.38570300  0.49018900  0.79117000
unknown system                          
           1
     6.385542    0.038710   -0.000368
    -1.824224    9.488639   -0.001846
     0.000214    0.000806    4.143972
   V    Fe
  17   3
Direct configuration=     2
   0.19492546  0.19261933  0.79165104
   0.19977632  0.69330272  0.79121086
   0.09919913  0.03925766  0.29175516
   0.09041396  0.53874935  0.29114891
   0.49671064  0.14188131  0.29167777
   0.29811682  0.34400402  0.29142814
   0.68869721  0.93858273  0.29165683
   0.90284011  0.74132987  0.29126321
   0.89649019  0.24301761  0.29160559
   0.49110204  0.64172400  0.29115071
   0.60027822  0.29280885  0.79150490
   0.99268815  0.89111415  0.79158475
   0.39599196  0.98836282  0.79170858
   0.59409762  0.78938160  0.79136892
   0.79717727  0.08899438  0.79169547
   0.79167473  0.59028342  0.79110972
   0.69366157  0.44354873  0.29122161
   0.29522181  0.83969390  0.29149015
   0.99514618  0.39312996  0.79133813
   0.38902861  0.49158759  0.79118355
unknown system                          
           1
     6.393753    0.038175   -0.000212
    -1.827145    9.452371   -0.001912
     0.000315    0.000795    4.148289
   V    Fe
  17   3
Direct configuration=     3
   0.19527037  0.19248113  0.79163213
   0.19894001  0.69165907  0.79122313
   0.09964193  0.04010807  0.29173999
   0.08958703  0.53787986  0.29115177
   0.49653492  0.14251748  0.29167908
   0.29872614  0.34560275  0.29143699
   0.68820729  0.93873195  0.29164510
   0.90344315  0.74088510  0.29127787
   0.89624491  0.24394338  0.29159878
   0.49053807  0.63994358  0.29116140
   0.59888384  0.29394791  0.79149911
   0.99380599  0.89154224  0.79156561
   0.39422321  0.98871349  0.79169164
   0.59510172  0.78953305  0.79138264
   0.79765071  0.08949145  0.79169580
   0.79087048  0.58852748  0.79113498
   0.69472020  0.44301086  0.29122343
   0.29478958  0.83973628  0.29148155
   0.99460805  0.39250638  0.79133970
   0.39145041  0.49261250  0.79119330
unknown system                          
           1
     6.401643    0.043319   -0.000202
    -1.822001    9.486868   -0.001861
     0.000323    0.000823    4.155203
   V    Fe
  17   3
Direct configuration=     4
   0.19513099  0.19314947  0.79161789
   0.19888090  0.69059206  0.79123595
   0.09919118  0.04083922  0.29170244
   0.09003104  0.53749032  0.29117208
   0.49595826  0.14337631  0.29166453
   0.29829482  0.34616704  0.29143875
   0.68795479  0.93873167  0.29163124
   0.90376179  0.74045968  0.29129120
   0.89585943  0.24399655  0.29158450
   0.49147391  0.63976054  0.29118938
   0.59773760  0.29386692  0.79149494
   0.99428674  0.89165420  0.79155166
   0.39355727  0.98860629  0.79167420
   0.59532612  0.78952577  0.79138469
   0.79731601  0.08996361  0.79168496
   0.79127123  0.58820183  0.79116389
   0.69497100  0.44254239  0.29123677
   0.29460865  0.83935614  0.29147706
   0.99477969  0.39178007  0.79134399
   0.39284656  0.49331392  0.79121387
unknown system                          
           1
     6.400391    0.042503   -0.000203
    -1.822817    9.481392   -0.001869
     0.000322    0.000818    4.154106
   V    Fe
  17   3
Direct configuration=     5
   0.19515328  0.19304376  0.79162015
   0.19888995  0.69076081  0.79123392
   0.09926284  0.04072355  0.29170839
   0.08996055  0.53755196  0.29116886
   0.49604992  0.14324044  0.29166684
   0.29836335  0.34607777  0.29143847
   0.68799481  0.93873170  0.29163344
   0.90371116  0.74052699  0.29128908
   0.89592055  0.24398811  0.29158677
   0.49132552  0.63978957  0.29118495
   0.59791926  0.29387963  0.79149560
   0.99421057  0.89163653  0.79155387
   0.39366279  0.98862319  0.79167696
   0.59529055  0.78952694  0.79138436
   0.79736920  0.08988891  0.79168668
   0.79120762  0.58825336  0.79115931
   0.69493111  0.44261650  0.29123465
   0.29463721  0.83941625  0.29147777
   0.99475227  0.39189495  0.79134331
   0.39262547  0.49320311  0.79121061
unknown system                          
           1
     6.386301    0.048185   -0.000224
    -1.810440    9.489383   -0.001776
     0.000308    0.000856    4.146918
   V    Fe
  17   3
Direct configuration=     6
   0.19472417  0.19382950  0.79160299
   0.19922994  0.68996854  0.79125000
   0.09849078  0.04133897  0.29166638
   0.09066887  0.53719600  0.29119715
   0.49519436  0.14402975  0.29164574
   0.29789761  0.34646317  0.29143806
   0.68777993  0.93872820  0.29161700
   0.90413829  0.74015788  0.29130362
   0.89536151  0.24389386  0.29156912
   0.49264598  0.64004214  0.29121823
   0.59693826  0.29367343  0.79149026
   0.99436060  0.89166633  0.79153889
   0.39312628  0.98839745  0.79165682
   0.59556480  0.78951078  0.79138539
   0.79667209  0.09017838  0.79166789
   0.79194709  0.58817919  0.79119196
   0.69509136  0.44222644  0.29125448
   0.29459094  0.83893911  0.29147284
   0.99512273  0.39122428  0.79135019
   0.39369242  0.49373060  0.79123698
unknown system                          
           1
     6.382226    0.049829   -0.000229
    -1.806859    9.491694   -0.001750
     0.000304    0.000867    4.144839
   V    Fe
  17   3
Direct configuration=     7
   0.19459929  0.19405669  0.79159802
   0.19932899  0.68973948  0.79125467
   0.09826660  0.04151698  0.29165420
   0.09087441  0.53709298  0.29120535
   0.49494586  0.14425804  0.29163962
   0.29776236  0.34657465  0.29143794
   0.68771764  0.93872722  0.29161223
   0.90426233  0.74005112  0.29130783
   0.89519952  0.24386672  0.29156400
   0.49302858  0.64011491  0.29122788
   0.59665402  0.29361401  0.79148872
   0.99440407  0.89167491  0.79153455
   0.39297091  0.98833230  0.79165098
   0.59564431  0.78950607  0.79138568
   0.79646983  0.09026217  0.79166245
   0.79216149  0.58815762  0.79120143
   0.69513805  0.44211367  0.29126022
   0.29457783  0.83880121  0.29147142
   0.99523054  0.39103037  0.79135219
   0.39400136  0.49388288  0.79124462
unknown system                          
           1
     6.383847    0.050190   -0.000244
    -1.806797    9.493687   -0.001668
     0.000295    0.000901    4.146492
   V    Fe
  17   3
Direct configuration=     8
   0.19389518  0.19444071  0.79157844
   0.20006861  0.68955901  0.79127351
   0.09741319  0.04173044  0.29162578
   0.09154095  0.53681118  0.29123528
   0.49391003  0.14441009  0.29161719
   0.29772222  0.34681683  0.29143527
   0.68755094  0.93880562  0.29159559
   0.90488920  0.73997798  0.29132043
   0.89448402  0.24378004  0.29154725
   0.49408994  0.64051111  0.29125485
   0.59631123  0.29370303  0.79148173
   0.99420266  0.89160174  0.79152023
   0.39240584  0.98818580  0.79162995
   0.59618190  0.78951565  0.79138972
   0.79553831  0.09014262  0.79163693
   0.79290412  0.58809269  0.79123048
   0.69541267  0.44203450  0.29128313
   0.29471082  0.83848489  0.29146552
   0.99565261  0.39080083  0.79136196
   0.39435357  0.49396922  0.79127076
unknown system                          
           1
     6.386682    0.050821   -0.000269
    -1.806688    9.497172   -0.001526
     0.000278    0.000961    4.149382
   V    Fe
  17   3
Direct configuration=     9
   0.19266424  0.19511212  0.79154421
   0.20136157  0.68924345  0.79130645
   0.09592131  0.04210367  0.29157609
   0.09270619  0.53631849  0.29128759
   0.49209924  0.14467595  0.29157797
   0.29765202  0.34724022  0.29143060
   0.68725952  0.93894269  0.29156651
   0.90598505  0.73985009  0.29134245
   0.89323324  0.24362854  0.29151796
   0.49594527  0.64120370  0.29130199
   0.59571197  0.29385869  0.79146953
   0.99385058  0.89147384  0.79149520
   0.39141806  0.98792973  0.79159318
   0.59712167  0.78953236  0.79139677
   0.79390992  0.08993369  0.79159234
   0.79420234  0.58797914  0.79128128
   0.69589274  0.44189609  0.29132318
   0.29494335  0.83793189  0.29145521
   0.99639048  0.39039952  0.79137903
   0.39496925  0.49412014  0.79131646
unknown system                          
           1
     6.384968    0.047619   -0.000247
    -1.810826    9.479754   -0.001480
     0.000292    0.000981    4.145897
   V    Fe
  17   3
Direct configuration=    10
   0.19151169  0.19502751  0.79151644
   0.20246857  0.68930404  0.79133585
   0.09499520  0.04215677  0.29154919
   0.09352944  0.53629549  0.29132785
   0.49084582  0.14440558  0.29154508
   0.29795270  0.34726375  0.29142767
   0.68674652  0.93911730  0.29153932
   0.90710341  0.73980684  0.29135897
   0.89219072  0.24358814  0.29149628
   0.49677946  0.64125275  0.29133138
   0.59547508  0.29404353  0.79146014
   0.99369560  0.89133770  0.79147784
   0.39048118  0.98801461  0.79156139
   0.59801642  0.78963112  0.79140515
   0.79280107  0.08983118  0.79155503
   0.79518287  0.58782780  0.79131966
   0.69647416  0.44211327  0.29135413
   0.29517176  0.83782503  0.29144829
   0.99663334  0.39050551  0.79139503
   0.39518298  0.49402607  0.79134930
unknown system                          
           1
     6.384904    0.047499   -0.000247
    -1.810981    9.479100   -0.001478
     0.000292    0.000982    4.145766
   V    Fe
  17   3
Direct configuration=    11
   0.19146837  0.19502431  0.79151540
   0.20251018  0.68930634  0.79133695
   0.09496040  0.04215875  0.29154818
   0.09356038  0.53629464  0.29132936
   0.49079870  0.14439539  0.29154384
   0.29796401  0.34726464  0.29142756
   0.68672725  0.93912387  0.29153830
   0.90714545  0.73980523  0.29135959
   0.89215154  0.24358660  0.29149547
   0.49681081  0.64125460  0.29133249
   0.59546618  0.29405049  0.79145979
   0.99368977  0.89133258  0.79147719
   0.39044597  0.98801780  0.79156019
   0.59805005  0.78963485  0.79140546
   0.79275939  0.08982730  0.79155363
   0.79521972  0.58782211  0.79132110
   0.69649602  0.44212145  0.29135529
   0.29518034  0.83782101  0.29144803
   0.99664247  0.39050951  0.79139563
   0.39519101  0.49402254  0.79135054
unknown system                          
           1
     6.394135    0.043165   -0.000222
    -1.820050    9.481256   -0.001491
     0.000308    0.000979    4.147720
   V    Fe
  17   3
Direct configuration=    12
   0.19044728  0.19466188  0.79149149
   0.20350936  0.68948450  0.79136545
   0.09426917  0.04208193  0.29152608
   0.09437100  0.53657693  0.29136493
   0.48993170  0.14399770  0.29151106
   0.29810341  0.34695066  0.29142717
   0.68604505  0.93928297  0.29150989
   0.90816872  0.73974858  0.29137541
   0.89133574  0.24360667  0.29147651
   0.49732643  0.64092503  0.29135684
   0.59514741  0.29407319  0.79145176
   0.99376447  0.89122059  0.79146465
   0.38962551  0.98828262  0.79152827
   0.59871496  0.78976037  0.79141269
   0.79190613  0.08993902  0.79151951
   0.79615926  0.58776041  0.79135583
   0.69705095  0.44243678  0.29138221
   0.29540096  0.83796229  0.29144366
   0.99665943  0.39081708  0.79141197
   0.39530104  0.49380481  0.79137864
unknown system                          
           1
     6.394729    0.042886   -0.000221
    -1.820634    9.481395   -0.001492
     0.000309    0.000979    4.147845
   V    Fe
  17   3
Direct configuration=    13
   0.19038162  0.19463852  0.79148995
   0.20357360  0.68949599  0.79136728
   0.09422473  0.04207696  0.29152466
   0.09442313  0.53659512  0.29136721
   0.48987594  0.14397209  0.29150895
   0.29811234  0.34693047  0.29142714
   0.68600122  0.93929319  0.29150806
   0.90823449  0.73974497  0.29137643
   0.89128331  0.24360794  0.29147529
   0.49735954  0.64090384  0.29135841
   0.59512693  0.29407464  0.79145125
   0.99376926  0.89121338  0.79146384
   0.38957280  0.98829964  0.79152622
   0.59875771  0.78976846  0.79141316
   0.79185130  0.08994618  0.79151731
   0.79621965  0.58775647  0.79135807
   0.69708665  0.44245708  0.29138394
   0.29541515  0.83797139  0.29144337
   0.99666054  0.39083687  0.79141302
   0.39530810  0.49379081  0.79138045
unknown system                          
           1
     6.393361    0.041519   -0.000238
    -1.822280    9.482738   -0.001529
     0.000297    0.000960    4.144366
   V    Fe
  17   3
Direct configuration=    14
   0.18997601  0.19445439  0.79147903
   0.20414235  0.68965345  0.79138300
   0.09387420  0.04196472  0.29150727
   0.09490986  0.53683251  0.29138610
   0.48968588  0.14391134  0.29148827
   0.29780930  0.34653988  0.29142969
   0.68554644  0.93930896  0.29149018
   0.90861730  0.73968274  0.29138764
   0.89112040  0.24373822  0.29146547
   0.49773272  0.64055818  0.29137390
   0.59466235  0.29393927  0.79144720
   0.99386345  0.89120299  0.79145983
   0.38934614  0.98848525  0.79150595
   0.59883387  0.78982297  0.79141494
   0.79145902  0.09015678  0.79149875
   0.79682185  0.58782825  0.79137758
   0.69723920  0.44252635  0.29139771
   0.29555225  0.83815099  0.29144288
   0.99664264  0.39104010  0.79142293
   0.39540277  0.49357667  0.79139567
unknown system                          
           1
     6.393122    0.041281   -0.000242
    -1.822567    9.482972   -0.001536
     0.000295    0.000957    4.143760
   V    Fe
  17   3
Direct configuration=    15
   0.18990537  0.19442232  0.79147713
   0.20424141  0.68968087  0.79138574
   0.09381315  0.04194517  0.29150424
   0.09499464  0.53687385  0.29138939
   0.48965278  0.14390075  0.29148466
   0.29775652  0.34647188  0.29143013
   0.68546725  0.93931170  0.29148707
   0.90868396  0.73967192  0.29138960
   0.89109203  0.24376090  0.29146376
   0.49779769  0.64049802  0.29137660
   0.59458145  0.29391569  0.79144649
   0.99387985  0.89120118  0.79145913
   0.38930667  0.98851756  0.79150242
   0.59884714  0.78983246  0.79141525
   0.79139072  0.09019343  0.79149551
   0.79692673  0.58784076  0.79138098
   0.69726577  0.44253841  0.29140011
   0.29557613  0.83818226  0.29144279
   0.99663952  0.39107548  0.79142466
   0.39541925  0.49353940  0.79139833
unknown system                          
           1
     6.395145    0.041099   -0.000278
    -1.823456    9.489475   -0.001585
     0.000271    0.000931    4.144383
   V    Fe
  17   3
Direct configuration=    16
   0.18981812  0.19437503  0.79147121
   0.20456792  0.68982823  0.79139521
   0.09366297  0.04185503  0.29148937
   0.09525556  0.53693900  0.29139949
   0.48966453  0.14404657  0.29147272
   0.29734948  0.34625917  0.29143354
   0.68524615  0.93924042  0.29147565
   0.90871646  0.73964826  0.29139900
   0.89115561  0.24394235  0.29145883
   0.49813282  0.64029098  0.29138800
   0.59417280  0.29387443  0.79144420
   0.99377853  0.89121845  0.79145682
   0.38939525  0.98860946  0.79148819
   0.59872354  0.78979231  0.79141645
   0.79122947  0.09032456  0.79148424
   0.79726262  0.58788056  0.79139219
   0.69722795  0.44243596  0.29140794
   0.29566270  0.83829607  0.29144276
   0.99672581  0.39118416  0.79143045
   0.39548972  0.49333300  0.79140772
unknown system                          
           1
     6.394595    0.041148   -0.000268
    -1.823214    9.487705   -0.001572
     0.000278    0.000938    4.144214
   V    Fe
  17   3
Direct configuration=    17
   0.18984186  0.19438789  0.79147282
   0.20447908  0.68978815  0.79139263
   0.09370383  0.04187955  0.29149342
   0.09518456  0.53692128  0.29139674
   0.48966133  0.14400691  0.29147597
   0.29746023  0.34631703  0.29143262
   0.68530631  0.93925981  0.29147876
   0.90870762  0.73965470  0.29139644
   0.89113831  0.24389300  0.29146017
   0.49804163  0.64034729  0.29138490
   0.59428399  0.29388565  0.79144482
   0.99380610  0.89121375  0.79145745
   0.38937115  0.98858446  0.79149206
   0.59875717  0.78980323  0.79141612
   0.79127335  0.09028890  0.79148731
   0.79717122  0.58786973  0.79138914
   0.69723824  0.44246383  0.29140581
   0.29563915  0.83826511  0.29144277
   0.99670233  0.39115460  0.79142888
   0.39547054  0.49338914  0.79140517
unknown system                          
           1
     6.392907    0.041687   -0.000300
    -1.821925    9.486503   -0.001627
     0.000257    0.000910    4.143431
   V    Fe
  17   3
Direct configuration=    18
   0.18982022  0.19435917  0.79146753
   0.20467908  0.68991461  0.79140059
   0.09360607  0.04180811  0.29147994
   0.09535179  0.53691010  0.29140416
   0.48970086  0.14420548  0.29146758
   0.29712498  0.34625223  0.29143608
   0.68522733  0.93916917  0.29146944
   0.90860445  0.73964164  0.29140537
   0.89123225  0.24407670  0.29145674
   0.49831984  0.64018467  0.29139505
   0.59400058  0.29395828  0.79144347
   0.99359590  0.89123670  0.79145438
   0.38954884  0.98864069  0.79147947
   0.59863903  0.78971939  0.79141847
   0.79120069  0.09035012  0.79147784
   0.79739549  0.58784493  0.79139764
   0.69714453  0.44232459  0.29141218
   0.29570140  0.83833896  0.29144235
   0.99680985  0.39122374  0.79143301
   0.39553482  0.49321472  0.79141269
unknown system                          
           1
     6.393175    0.041602   -0.000295
    -1.822130    9.486694   -0.001618
     0.000261    0.000915    4.143556
   V    Fe
  17   3
Direct configuration=    19
   0.18982366  0.19436373  0.79146837
   0.20464729  0.68989451  0.79139933
   0.09362161  0.04181947  0.29148208
   0.09532520  0.53691188  0.29140298
   0.48969458  0.14417392  0.29146891
   0.29717828  0.34626253  0.29143553
   0.68523989  0.93918358  0.29147092
   0.90862085  0.73964371  0.29140395
   0.89121732  0.24404750  0.29145729
   0.49827560  0.64021052  0.29139344
   0.59404564  0.29394673  0.79144368
   0.99362932  0.89123305  0.79145487
   0.38952060  0.98863175  0.79148147
   0.59865781  0.78973272  0.79141809
   0.79121224  0.09034039  0.79147934
   0.79735984  0.58784887  0.79139629
   0.69715943  0.44234672  0.29141117
   0.29569150  0.83832722  0.29144242
   0.99679276  0.39121275  0.79143235
   0.39552460  0.49324245  0.79141149
unknown system                          
           1
     6.393667    0.042072   -0.000301
    -1.821569    9.486290   -0.001650
     0.000257    0.000900    4.144427
   V    Fe
  17   3
Direct configuration=    20
   0.18979652  0.19431335  0.79146474
   0.20464694  0.68993138  0.79140363
   0.09362674  0.04180907  0.29147637
   0.09537220  0.53690868  0.29140619
   0.48967278  0.14424719  0.29146610
   0.29713634  0.34632406  0.29143705
   0.68526261  0.93916121  0.29146658
   0.90856258  0.73962367  0.29140819
   0.89119466  0.24408608  0.29145593
   0.49830284  0.64014312  0.29139817
   0.59403217  0.29404079  0.79144366
   0.99351756  0.89124529  0.79145193
   0.38958949  0.98865863  0.79147525
   0.59866183  0.78966785  0.79142089
   0.79122855  0.09033857  0.79147436
   0.79740901  0.58777640  0.79140034
   0.69714885  0.44231660  0.29141430
   0.29569515  0.83834743  0.29144154
   0.99684645  0.39123807  0.79143377
   0.39553473  0.49319655  0.79141499
