  20  20   0   0
  0.1295360E+02  0.7295595E-09  0.5890956E-09  0.6759950E-09  0.5000000E-15
  1.000000000000000E-004
  CAR 
 unknown system                          
      8.95244081     -1.35919418  301      6.52384468      1.00000000
     -1.359  0.0000E+00  0.0000E+00
     -1.325  0.0000E+00  0.0000E+00
     -1.290  0.0000E+00  0.0000E+00
     -1.256  0.0000E+00  0.0000E+00
     -1.222  0.0000E+00  0.0000E+00
     -1.187  0.0000E+00  0.0000E+00
     -1.153  0.0000E+00  0.0000E+00
     -1.119  0.0000E+00  0.0000E+00
     -1.084  0.0000E+00  0.0000E+00
     -1.050  0.0000E+00  0.0000E+00
     -1.015  0.0000E+00  0.0000E+00
     -0.981  0.0000E+00  0.0000E+00
     -0.947  0.8075E-18  0.2776E-19
     -0.912  0.3634E-16  0.1277E-17
     -0.878  0.1554E-14  0.5468E-16
     -0.844  0.5186E-13  0.1837E-14
     -0.809  0.1371E-11  0.4895E-13
     -0.775  0.2868E-10  0.1035E-11
     -0.740  0.4755E-09  0.1738E-10
     -0.706  0.6244E-08  0.2320E-09
     -0.672  0.6496E-07  0.2465E-08
     -0.637  0.5356E-06  0.2087E-07
     -0.603  0.3500E-05  0.1412E-06
     -0.569  0.1813E-04  0.7642E-06
     -0.534  0.7444E-04  0.3323E-05
     -0.500  0.2424E-03  0.1165E-04
     -0.466  0.6259E-03  0.3317E-04
     -0.431  0.1282E-02  0.7722E-04
     -0.397  0.2082E-02  0.1488E-03
     -0.362  0.2682E-02  0.2410E-03
     -0.328  0.2740E-02  0.3351E-03
     -0.294  0.2221E-02  0.4115E-03
     -0.259  0.1428E-02  0.4606E-03
     -0.225  0.7282E-03  0.4856E-03
     -0.191  0.2945E-03  0.4957E-03
     -0.156  0.9445E-04  0.4990E-03
     -0.122  0.2402E-04  0.4998E-03
     -0.087  0.4842E-05  0.5000E-03
     -0.053  0.7739E-06  0.5000E-03
     -0.019  0.9803E-07  0.5000E-03
      0.016  0.9841E-08  0.5000E-03
      0.050  0.7828E-09  0.5000E-03
      0.084  0.5039E-10  0.5000E-03
      0.119  0.2546E-10  0.5000E-03
      0.153  0.3903E-09  0.5000E-03
      0.188  0.5254E-08  0.5000E-03
      0.222  0.5620E-07  0.5000E-03
      0.256  0.4780E-06  0.5000E-03
      0.291  0.3237E-05  0.5001E-03
      0.325  0.1749E-04  0.5007E-03
      0.359  0.7552E-04  0.5033E-03
      0.394  0.2615E-03  0.5123E-03
      0.428  0.7289E-03  0.5374E-03
      0.463  0.1643E-02  0.5939E-03
      0.497  0.3020E-02  0.6976E-03
      0.531  0.4572E-02  0.8548E-03
      0.566  0.5806E-02  0.1054E-02
      0.600  0.6355E-02  0.1273E-02
      0.634  0.6233E-02  0.1487E-02
      0.669  0.5736E-02  0.1684E-02
      0.703  0.5167E-02  0.1862E-02
      0.738  0.4676E-02  0.2023E-02
      0.772  0.4214E-02  0.2167E-02
      0.806  0.3610E-02  0.2291E-02
      0.841  0.2774E-02  0.2387E-02
      0.875  0.1876E-02  0.2451E-02
      0.909  0.1295E-02  0.2496E-02
      0.944  0.1445E-02  0.2545E-02
      0.978  0.2636E-02  0.2636E-02
      1.012  0.4892E-02  0.2804E-02
      1.047  0.7674E-02  0.3068E-02
      1.081  0.9873E-02  0.3407E-02
      1.116  0.1039E-01  0.3765E-02
      1.150  0.8954E-02  0.4072E-02
      1.184  0.6343E-02  0.4290E-02
      1.219  0.3809E-02  0.4421E-02
      1.253  0.2299E-02  0.4500E-02
      1.287  0.2137E-02  0.4574E-02
      1.322  0.3097E-02  0.4680E-02
      1.356  0.4512E-02  0.4835E-02
      1.391  0.5481E-02  0.5024E-02
      1.425  0.5380E-02  0.5209E-02
      1.459  0.4348E-02  0.5358E-02
      1.494  0.3177E-02  0.5467E-02
      1.528  0.2680E-02  0.5559E-02
      1.562  0.3198E-02  0.5669E-02
      1.597  0.4647E-02  0.5829E-02
      1.631  0.6820E-02  0.6063E-02
      1.666  0.9431E-02  0.6388E-02
      1.700  0.1186E-01  0.6795E-02
      1.734  0.1314E-01  0.7247E-02
      1.769  0.1253E-01  0.7677E-02
      1.803  0.1017E-01  0.8027E-02
      1.837  0.7067E-02  0.8270E-02
      1.872  0.4458E-02  0.8423E-02
      1.906  0.3194E-02  0.8533E-02
      1.941  0.3488E-02  0.8653E-02
      1.975  0.4935E-02  0.8822E-02
      2.009  0.6714E-02  0.9053E-02
      2.044  0.8012E-02  0.9328E-02
      2.078  0.8407E-02  0.9617E-02
      2.112  0.7900E-02  0.9889E-02
      2.147  0.6676E-02  0.1012E-01
      2.181  0.4995E-02  0.1029E-01
      2.216  0.3245E-02  0.1040E-01
      2.250  0.1871E-02  0.1047E-01
      2.284  0.1214E-02  0.1051E-01
      2.319  0.1436E-02  0.1056E-01
      2.353  0.2506E-02  0.1064E-01
      2.387  0.4105E-02  0.1078E-01
      2.422  0.5598E-02  0.1098E-01
      2.456  0.6395E-02  0.1120E-01
      2.490  0.6450E-02  0.1142E-01
      2.525  0.6298E-02  0.1163E-01
      2.559  0.6551E-02  0.1186E-01
      2.594  0.7453E-02  0.1212E-01
      2.628  0.8883E-02  0.1242E-01
      2.662  0.1062E-01  0.1279E-01
      2.697  0.1262E-01  0.1322E-01
      2.731  0.1503E-01  0.1374E-01
      2.765  0.1782E-01  0.1435E-01
      2.800  0.2034E-01  0.1505E-01
      2.834  0.2174E-01  0.1580E-01
      2.869  0.2178E-01  0.1654E-01
      2.903  0.2122E-01  0.1727E-01
      2.937  0.2114E-01  0.1800E-01
      2.972  0.2193E-01  0.1875E-01
      3.006  0.2296E-01  0.1954E-01
      3.040  0.2318E-01  0.2034E-01
      3.075  0.2200E-01  0.2110E-01
      3.109  0.1991E-01  0.2178E-01
      3.144  0.1812E-01  0.2240E-01
      3.178  0.1780E-01  0.2302E-01
      3.212  0.1933E-01  0.2368E-01
      3.247  0.2224E-01  0.2444E-01
      3.281  0.2567E-01  0.2533E-01
      3.315  0.2880E-01  0.2632E-01
      3.350  0.3131E-01  0.2739E-01
      3.384  0.3369E-01  0.2855E-01
      3.419  0.3667E-01  0.2981E-01
      3.453  0.4041E-01  0.3120E-01
      3.487  0.4433E-01  0.3272E-01
      3.522  0.4802E-01  0.3437E-01
      3.556  0.5169E-01  0.3615E-01
      3.590  0.5585E-01  0.3807E-01
      3.625  0.6058E-01  0.4015E-01
      3.659  0.6550E-01  0.4240E-01
      3.694  0.7028E-01  0.4482E-01
      3.728  0.7465E-01  0.4739E-01
      3.762  0.7780E-01  0.5006E-01
      3.797  0.7849E-01  0.5276E-01
      3.831  0.7624E-01  0.5538E-01
      3.865  0.7203E-01  0.5785E-01
      3.900  0.6754E-01  0.6018E-01
      3.934  0.6377E-01  0.6237E-01
      3.968  0.6066E-01  0.6445E-01
      4.003  0.5752E-01  0.6643E-01
      4.037  0.5359E-01  0.6827E-01
      4.072  0.4858E-01  0.6994E-01
      4.106  0.4319E-01  0.7143E-01
      4.140  0.3900E-01  0.7277E-01
      4.175  0.3739E-01  0.7405E-01
      4.209  0.3849E-01  0.7537E-01
      4.243  0.4127E-01  0.7679E-01
      4.278  0.4414E-01  0.7831E-01
      4.312  0.4544E-01  0.7987E-01
      4.347  0.4392E-01  0.8138E-01
      4.381  0.3938E-01  0.8274E-01
      4.415  0.3303E-01  0.8387E-01
      4.450  0.2715E-01  0.8480E-01
      4.484  0.2405E-01  0.8563E-01
      4.518  0.2470E-01  0.8648E-01
      4.553  0.2819E-01  0.8745E-01
      4.587  0.3279E-01  0.8858E-01
      4.622  0.3798E-01  0.8988E-01
      4.656  0.4517E-01  0.9143E-01
      4.690  0.5587E-01  0.9335E-01
      4.725  0.6894E-01  0.9572E-01
      4.759  0.8037E-01  0.9849E-01
      4.793  0.8618E-01  0.1014E+00
      4.828  0.8541E-01  0.1044E+00
      4.862  0.8032E-01  0.1071E+00
      4.897  0.7401E-01  0.1097E+00
      4.931  0.6823E-01  0.1120E+00
      4.965  0.6332E-01  0.1142E+00
      5.000  0.5933E-01  0.1162E+00
      5.034  0.5667E-01  0.1182E+00
      5.068  0.5571E-01  0.1201E+00
      5.103  0.5628E-01  0.1220E+00
      5.137  0.5743E-01  0.1240E+00
      5.172  0.5785E-01  0.1260E+00
      5.206  0.5692E-01  0.1280E+00
      5.240  0.5561E-01  0.1299E+00
      5.275  0.5606E-01  0.1318E+00
      5.309  0.5944E-01  0.1338E+00
      5.343  0.6438E-01  0.1361E+00
      5.378  0.6832E-01  0.1384E+00
      5.412  0.7007E-01  0.1408E+00
      5.446  0.7063E-01  0.1432E+00
      5.481  0.7141E-01  0.1457E+00
      5.515  0.7255E-01  0.1482E+00
      5.550  0.7290E-01  0.1507E+00
      5.584  0.7130E-01  0.1531E+00
      5.618  0.6787E-01  0.1555E+00
      5.653  0.6425E-01  0.1577E+00
      5.687  0.6270E-01  0.1598E+00
      5.721  0.6441E-01  0.1621E+00
      5.756  0.6833E-01  0.1644E+00
      5.790  0.7175E-01  0.1669E+00
      5.825  0.7227E-01  0.1694E+00
      5.859  0.7003E-01  0.1718E+00
      5.893  0.6776E-01  0.1741E+00
      5.928  0.6826E-01  0.1764E+00
      5.962  0.7182E-01  0.1789E+00
      5.996  0.7631E-01  0.1815E+00
      6.031  0.7931E-01  0.1843E+00
      6.065  0.7985E-01  0.1870E+00
      6.100  0.7863E-01  0.1897E+00
      6.134  0.7713E-01  0.1924E+00
      6.168  0.7643E-01  0.1950E+00
      6.203  0.7656E-01  0.1976E+00
      6.237  0.7674E-01  0.2003E+00
      6.271  0.7609E-01  0.2029E+00
      6.306  0.7409E-01  0.2054E+00
      6.340  0.7071E-01  0.2078E+00
      6.375  0.6620E-01  0.2101E+00
      6.409  0.6107E-01  0.2122E+00
      6.443  0.5593E-01  0.2141E+00
      6.478  0.5107E-01  0.2159E+00
      6.512  0.4632E-01  0.2175E+00
      6.546  0.4166E-01  0.2189E+00
      6.581  0.3773E-01  0.2202E+00
      6.615  0.3509E-01  0.2214E+00
      6.650  0.3323E-01  0.2226E+00
      6.684  0.3077E-01  0.2236E+00
      6.718  0.2697E-01  0.2246E+00
      6.753  0.2254E-01  0.2253E+00
      6.787  0.1890E-01  0.2260E+00
      6.821  0.1698E-01  0.2266E+00
      6.856  0.1680E-01  0.2271E+00
      6.890  0.1787E-01  0.2278E+00
      6.924  0.1960E-01  0.2284E+00
      6.959  0.2127E-01  0.2292E+00
      6.993  0.2214E-01  0.2299E+00
      7.028  0.2175E-01  0.2307E+00
      7.062  0.2026E-01  0.2314E+00
      7.096  0.1854E-01  0.2320E+00
      7.131  0.1808E-01  0.2326E+00
      7.165  0.2077E-01  0.2333E+00
      7.199  0.2797E-01  0.2343E+00
      7.234  0.3888E-01  0.2356E+00
      7.268  0.5028E-01  0.2374E+00
      7.303  0.5870E-01  0.2394E+00
      7.337  0.6315E-01  0.2415E+00
      7.371  0.6504E-01  0.2438E+00
      7.406  0.6558E-01  0.2460E+00
      7.440  0.6440E-01  0.2483E+00
      7.474  0.6097E-01  0.2503E+00
      7.509  0.5600E-01  0.2523E+00
      7.543  0.5072E-01  0.2540E+00
      7.578  0.4571E-01  0.2556E+00
      7.612  0.4116E-01  0.2570E+00
      7.646  0.3760E-01  0.2583E+00
      7.681  0.3577E-01  0.2595E+00
      7.715  0.3609E-01  0.2608E+00
      7.749  0.3834E-01  0.2621E+00
      7.784  0.4160E-01  0.2635E+00
      7.818  0.4440E-01  0.2650E+00
      7.853  0.4538E-01  0.2666E+00
      7.887  0.4362E-01  0.2681E+00
      7.921  0.3866E-01  0.2694E+00
      7.956  0.3077E-01  0.2705E+00
      7.990  0.2139E-01  0.2712E+00
      8.024  0.1268E-01  0.2717E+00
      8.059  0.6292E-02  0.2719E+00
      8.093  0.2581E-02  0.2720E+00
      8.128  0.8674E-03  0.2720E+00
      8.162  0.2372E-03  0.2720E+00
      8.196  0.5246E-04  0.2720E+00
      8.231  0.9350E-05  0.2720E+00
      8.265  0.1338E-05  0.2720E+00
      8.299  0.1533E-06  0.2720E+00
      8.334  0.1403E-07  0.2720E+00
      8.368  0.1024E-08  0.2720E+00
      8.402  0.5954E-10  0.2720E+00
      8.437  0.2753E-11  0.2720E+00
      8.471  0.1011E-12  0.2720E+00
      8.506  0.2947E-14  0.2720E+00
      8.540  0.6783E-16  0.2720E+00
      8.574  0.0000E+00  0.2720E+00
      8.609  0.0000E+00  0.2720E+00
      8.643  0.0000E+00  0.2720E+00
      8.677  0.0000E+00  0.2720E+00
      8.712  0.0000E+00  0.2720E+00
      8.746  0.0000E+00  0.2720E+00
      8.781  0.0000E+00  0.2720E+00
      8.815  0.0000E+00  0.2720E+00
      8.849  0.0000E+00  0.2720E+00
      8.884  0.0000E+00  0.2720E+00
      8.918  0.0000E+00  0.2720E+00
      8.952  0.0000E+00  0.2720E+00
