   20   20  500    1
  0.1295360E+02  0.7295595E-09  0.5890956E-09  0.6759950E-09  0.5000000E-15
  1.000000000000000E-004
  CAR 
 unknown system                          
    109      8     68
 
  0.0000000E+00  0.0000000E+00  0.0000000E+00  0.1250000E+00
    1       -0.359194   1.000000
    2        2.551972   1.000000
    3        2.630013   1.000000
    4        2.843849   1.000000
    5        2.893888   1.000000
    6        2.997374   1.000000
    7        3.051560   1.000000
    8        3.098191   1.000000
    9        3.115416   1.000000
   10        3.518351   1.000000
   11        3.608902   1.000000
   12        3.639074   1.000000
   13        3.640770   1.000000
   14        3.787104   1.000000
   15        3.821200   1.000000
   16        3.912248   1.000000
   17        3.946234   1.000000
   18        4.166818   1.000000
   19        4.296044   1.000000
   20        4.334436   1.000000
   21        4.380283   1.000000
   22        4.655619   1.000000
   23        4.755325   1.000000
   24        4.795699   1.000000
   25        4.804326   1.000000
   26        4.817894   1.000000
   27        4.868153   1.000000
   28        4.893521   1.000000
   29        4.938308   1.000000
   30        5.108681   1.000000
   31        5.218928   1.000000
   32        5.285946   1.000000
   33        5.314923   1.000000
   34        5.374713   1.000000
   35        5.381218   1.000000
   36        5.481796   1.000000
   37        5.552993   1.000000
   38        5.646665   1.000000
   39        5.702113   1.000000
   40        5.722757   1.000000
   41        5.759994   1.000000
   42        5.836601   1.000000
   43        5.921298   1.000000
   44        5.953443   1.000000
   45        5.976780   1.000000
   46        6.022776   1.000000
   47        6.048091   1.000000
   48        6.090751   1.000000
   49        6.216103   0.999993
   50        6.225583   0.999988
   51        6.277655   0.999751
   52        6.338319   0.995651
   53        6.406225   0.951882
   54        6.425043   0.918832
   55        6.597128   0.150010
   56        6.642535   0.046622
   57        6.728894   0.001867
   58        6.752110   0.000623
   59        7.257660   0.000000
   60        7.282044   0.000000
   61        7.299092   0.000000
   62        7.413466   0.000000
   63        7.422561   0.000000
   64        7.541996   0.000000
   65        7.683893   0.000000
   66        7.784134   0.000000
   67        7.791608   0.000000
   68        7.816321   0.000000
 
  0.5000000E+00 -0.1895588E-17 -0.2245115E-18  0.1250000E+00
    1        0.585592   1.000000
    2        0.673993   1.000000
    3        2.758293   1.000000
    4        3.017137   1.000000
    5        3.287475   1.000000
    6        3.381946   1.000000
    7        3.436304   1.000000
    8        3.440025   1.000000
    9        3.511513   1.000000
   10        3.524113   1.000000
   11        3.578325   1.000000
   12        3.582240   1.000000
   13        3.622628   1.000000
   14        3.644221   1.000000
   15        3.647161   1.000000
   16        3.713427   1.000000
   17        3.740471   1.000000
   18        3.745603   1.000000
   19        3.771560   1.000000
   20        3.783382   1.000000
   21        3.815939   1.000000
   22        3.863180   1.000000
   23        4.707167   1.000000
   24        4.722283   1.000000
   25        4.733816   1.000000
   26        4.742829   1.000000
   27        4.795212   1.000000
   28        4.923449   1.000000
   29        5.038681   1.000000
   30        5.146981   1.000000
   31        5.159435   1.000000
   32        5.187598   1.000000
   33        5.346242   1.000000
   34        5.430101   1.000000
   35        5.521846   1.000000
   36        5.752605   1.000000
   37        5.775196   1.000000
   38        5.802099   1.000000
   39        5.824698   1.000000
   40        5.965758   1.000000
   41        6.034392   1.000000
   42        6.046059   1.000000
   43        6.098080   1.000000
   44        6.229077   0.999985
   45        6.267733   0.999854
   46        6.325542   0.997480
   47        6.382153   0.977456
   48        6.493911   0.663969
   49        6.511653   0.568448
   50        6.598102   0.146824
   51        6.606454   0.121348
   52        6.657556   0.029315
   53        6.669398   0.019774
   54        6.710983   0.004066
   55        6.834363   0.000006
   56        6.930932   0.000000
   57        6.982705   0.000000
   58        7.021315   0.000000
   59        7.128178   0.000000
   60        7.233075   0.000000
   61        7.272876   0.000000
   62        7.285616   0.000000
   63        7.300479   0.000000
   64        7.358902   0.000000
   65        7.377585   0.000000
   66        7.390879   0.000000
   67        7.472328   0.000000
   68        7.591581   0.000000
 
  0.0000000E+00  0.5000000E+00  0.1701220E-17  0.1250000E+00
    1        0.537218   1.000000
    2        0.785695   1.000000
    3        2.800767   1.000000
    4        2.820142   1.000000
    5        3.208851   1.000000
    6        3.322054   1.000000
    7        3.397760   1.000000
    8        3.436464   1.000000
    9        3.452595   1.000000
   10        3.456204   1.000000
   11        3.475072   1.000000
   12        3.507295   1.000000
   13        3.514900   1.000000
   14        3.532768   1.000000
   15        3.545525   1.000000
   16        3.576268   1.000000
   17        3.591631   1.000000
   18        3.641615   1.000000
   19        3.742659   1.000000
   20        3.786249   1.000000
   21        4.747413   1.000000
   22        4.786467   1.000000
   23        4.850056   1.000000
   24        4.909179   1.000000
   25        4.956378   1.000000
   26        4.999734   1.000000
   27        5.034050   1.000000
   28        5.075908   1.000000
   29        5.145366   1.000000
   30        5.182207   1.000000
   31        5.222332   1.000000
   32        5.239326   1.000000
   33        5.357612   1.000000
   34        5.436381   1.000000
   35        5.498135   1.000000
   36        5.547537   1.000000
   37        5.574846   1.000000
   38        5.604967   1.000000
   39        5.761185   1.000000
   40        5.784042   1.000000
   41        5.787884   1.000000
   42        5.831748   1.000000
   43        6.035930   1.000000
   44        6.045238   1.000000
   45        6.116384   1.000000
   46        6.218334   0.999992
   47        6.226665   0.999987
   48        6.260577   0.999902
   49        6.344223   0.994461
   50        6.413690   0.940363
   51        6.434659   0.896394
   52        6.484097   0.712984
   53        6.501731   0.622760
   54        6.517589   0.535246
   55        6.540474   0.407036
   56        6.656807   0.030029
   57        6.816268   0.000018
   58        6.943421   0.000000
   59        6.980592   0.000000
   60        7.265267   0.000000
   61        7.289962   0.000000
   62        7.294063   0.000000
   63        7.328750   0.000000
   64        7.412557   0.000000
   65        7.434654   0.000000
   66        7.512948   0.000000
   67        7.745085   0.000000
   68        7.846748   0.000000
 
  0.5000000E+00  0.5000000E+00  0.1476708E-17  0.1250000E+00
    1        1.377840   1.000000
    2        1.395081   1.000000
    3        1.602018   1.000000
    4        1.754918   1.000000
    5        2.870564   1.000000
    6        2.985119   1.000000
    7        3.042012   1.000000
    8        3.050272   1.000000
    9        3.450883   1.000000
   10        3.599948   1.000000
   11        3.672079   1.000000
   12        3.689428   1.000000
   13        3.834862   1.000000
   14        3.836369   1.000000
   15        3.925530   1.000000
   16        3.945547   1.000000
   17        4.054229   1.000000
   18        4.179297   1.000000
   19        4.193304   1.000000
   20        4.220498   1.000000
   21        4.269965   1.000000
   22        4.283081   1.000000
   23        4.306501   1.000000
   24        4.325344   1.000000
   25        4.693112   1.000000
   26        4.735058   1.000000
   27        4.736717   1.000000
   28        4.816800   1.000000
   29        4.833354   1.000000
   30        4.894815   1.000000
   31        5.028034   1.000000
   32        5.068027   1.000000
   33        5.112631   1.000000
   34        5.338960   1.000000
   35        5.380073   1.000000
   36        5.464449   1.000000
   37        5.575689   1.000000
   38        5.625862   1.000000
   39        5.750211   1.000000
   40        5.819008   1.000000
   41        5.835715   1.000000
   42        5.971958   1.000000
   43        6.095666   1.000000
   44        6.123925   1.000000
   45        6.183651   0.999999
   46        6.200517   0.999998
   47        6.234366   0.999979
   48        6.357972   0.990507
   49        6.366180   0.987117
   50        6.477978   0.741717
   51        6.510281   0.576056
   52        6.536108   0.431157
   53        6.994059   0.000000
   54        7.093786   0.000000
   55        7.209774   0.000000
   56        7.270501   0.000000
   57        7.339554   0.000000
   58        7.368161   0.000000
   59        7.375945   0.000000
   60        7.454660   0.000000
   61        7.567233   0.000000
   62        7.666731   0.000000
   63        7.804027   0.000000
   64        7.880145   0.000000
   65        7.884225   0.000000
   66        7.906706   0.000000
   67        7.912195   0.000000
   68        7.948474   0.000000
 
  0.0000000E+00  0.0000000E+00  0.5000000E+00  0.1250000E+00
    1        1.067819   1.000000
    2        1.121786   1.000000
    3        2.421064   1.000000
    4        2.669701   1.000000
    5        3.344266   1.000000
    6        3.345625   1.000000
    7        3.645011   1.000000
    8        3.685004   1.000000
    9        3.714466   1.000000
   10        3.764383   1.000000
   11        3.770749   1.000000
   12        3.852504   1.000000
   13        3.876051   1.000000
   14        3.915383   1.000000
   15        4.039579   1.000000
   16        4.053977   1.000000
   17        4.070700   1.000000
   18        4.155475   1.000000
   19        4.221318   1.000000
   20        4.363645   1.000000
   21        4.385890   1.000000
   22        4.591753   1.000000
   23        4.592849   1.000000
   24        4.730842   1.000000
   25        4.741785   1.000000
   26        4.810701   1.000000
   27        4.836534   1.000000
   28        4.897436   1.000000
   29        4.949307   1.000000
   30        4.969997   1.000000
   31        5.068235   1.000000
   32        5.110583   1.000000
   33        5.164704   1.000000
   34        5.180341   1.000000
   35        5.226690   1.000000
   36        5.326632   1.000000
   37        5.356697   1.000000
   38        5.375970   1.000000
   39        5.435528   1.000000
   40        5.437914   1.000000
   41        5.510919   1.000000
   42        5.583373   1.000000
   43        5.594676   1.000000
   44        5.704202   1.000000
   45        5.734915   1.000000
   46        5.813541   1.000000
   47        5.850951   1.000000
   48        5.905950   1.000000
   49        5.942967   1.000000
   50        5.949603   1.000000
   51        5.981252   1.000000
   52        6.083719   1.000000
   53        6.179999   0.999999
   54        6.214520   0.999994
   55        6.292432   0.999467
   56        6.370767   0.984800
   57        6.377341   0.980862
   58        6.476987   0.746228
   59        7.242116   0.000000
   60        7.276507   0.000000
   61        7.378024   0.000000
   62        7.417378   0.000000
   63        7.534781   0.000000
   64        7.573829   0.000000
   65        7.681101   0.000000
   66        7.765829   0.000000
   67        7.904694   0.000000
   68        7.952441   0.000000
 
  0.5000000E+00 -0.1895588E-17  0.5000000E+00  0.1250000E+00
    1        1.060961   1.000000
    2        1.109700   1.000000
    3        2.436939   1.000000
    4        2.698089   1.000000
    5        3.311738   1.000000
    6        3.313233   1.000000
    7        3.664047   1.000000
    8        3.677465   1.000000
    9        3.739419   1.000000
   10        3.794411   1.000000
   11        3.800069   1.000000
   12        3.852631   1.000000
   13        3.871990   1.000000
   14        3.961467   1.000000
   15        4.010321   1.000000
   16        4.016398   1.000000
   17        4.039839   1.000000
   18        4.110328   1.000000
   19        4.168946   1.000000
   20        4.321344   1.000000
   21        4.339081   1.000000
   22        4.575217   1.000000
   23        4.631092   1.000000
   24        4.746735   1.000000
   25        4.795116   1.000000
   26        4.795427   1.000000
   27        4.917012   1.000000
   28        4.938733   1.000000
   29        4.988818   1.000000
   30        4.989784   1.000000
   31        5.128452   1.000000
   32        5.148997   1.000000
   33        5.188181   1.000000
   34        5.202983   1.000000
   35        5.220664   1.000000
   36        5.341854   1.000000
   37        5.344317   1.000000
   38        5.373805   1.000000
   39        5.454286   1.000000
   40        5.454860   1.000000
   41        5.511224   1.000000
   42        5.545132   1.000000
   43        5.646717   1.000000
   44        5.697757   1.000000
   45        5.698946   1.000000
   46        5.773302   1.000000
   47        5.844655   1.000000
   48        5.909939   1.000000
   49        5.926486   1.000000
   50        5.958088   1.000000
   51        5.958929   1.000000
   52        6.061535   1.000000
   53        6.135392   1.000000
   54        6.155688   1.000000
   55        6.285376   0.999628
   56        6.328602   0.997120
   57        6.381733   0.977772
   58        6.416035   0.936328
   59        7.254818   0.000000
   60        7.279056   0.000000
   61        7.413770   0.000000
   62        7.445628   0.000000
   63        7.521386   0.000000
   64        7.559622   0.000000
   65        7.659815   0.000000
   66        7.803445   0.000000
   67        7.909150   0.000000
   68        7.937739   0.000000
 
  0.0000000E+00  0.5000000E+00  0.5000000E+00  0.1250000E+00
    1        1.695623   1.000000
    2        1.788689   1.000000
    3        2.021402   1.000000
    4        2.092679   1.000000
    5        2.796260   1.000000
    6        2.958863   1.000000
    7        3.180626   1.000000
    8        3.235076   1.000000
    9        3.754925   1.000000
   10        3.775304   1.000000
   11        3.895159   1.000000
   12        3.914942   1.000000
   13        3.945034   1.000000
   14        3.973128   1.000000
   15        3.989941   1.000000
   16        4.032974   1.000000
   17        4.079628   1.000000
   18        4.237257   1.000000
   19        4.263561   1.000000
   20        4.364649   1.000000
   21        4.406281   1.000000
   22        4.511257   1.000000
   23        4.535332   1.000000
   24        4.581882   1.000000
   25        4.696832   1.000000
   26        4.731059   1.000000
   27        4.778475   1.000000
   28        4.806277   1.000000
   29        4.847721   1.000000
   30        4.890292   1.000000
   31        5.017782   1.000000
   32        5.059160   1.000000
   33        5.293202   1.000000
   34        5.333325   1.000000
   35        5.369347   1.000000
   36        5.457208   1.000000
   37        5.488948   1.000000
   38        5.539035   1.000000
   39        5.577317   1.000000
   40        5.592424   1.000000
   41        5.613162   1.000000
   42        5.658426   1.000000
   43        5.809365   1.000000
   44        5.810870   1.000000
   45        5.902994   1.000000
   46        5.986022   1.000000
   47        6.018527   1.000000
   48        6.031297   1.000000
   49        6.039791   1.000000
   50        6.078905   1.000000
   51        6.140832   1.000000
   52        6.171956   1.000000
   53        6.190387   0.999999
   54        6.287144   0.999592
   55        6.302001   0.999148
   56        6.344791   0.994333
   57        6.442809   0.874105
   58        6.660661   0.026503
   59        6.904181   0.000000
   60        7.086522   0.000000
   61        7.426477   0.000000
   62        7.455991   0.000000
   63        7.546675   0.000000
   64        7.578677   0.000000
   65        7.655389   0.000000
   66        7.769586   0.000000
   67        7.781866   0.000000
   68        7.848830   0.000000
 
  0.5000000E+00  0.5000000E+00  0.5000000E+00  0.1250000E+00
    1        1.715312   1.000000
    2        1.715588   1.000000
    3        2.004463   1.000000
    4        2.143388   1.000000
    5        2.795554   1.000000
    6        2.935361   1.000000
    7        3.229042   1.000000
    8        3.293859   1.000000
    9        3.728486   1.000000
   10        3.733660   1.000000
   11        3.803416   1.000000
   12        3.835595   1.000000
   13        3.914729   1.000000
   14        3.959370   1.000000
   15        3.998727   1.000000
   16        4.045973   1.000000
   17        4.095551   1.000000
   18        4.259188   1.000000
   19        4.294404   1.000000
   20        4.406211   1.000000
   21        4.461842   1.000000
   22        4.556247   1.000000
   23        4.571050   1.000000
   24        4.605255   1.000000
   25        4.699070   1.000000
   26        4.751983   1.000000
   27        4.774116   1.000000
   28        4.788848   1.000000
   29        4.882998   1.000000
   30        4.913301   1.000000
   31        4.980872   1.000000
   32        5.092794   1.000000
   33        5.301325   1.000000
   34        5.311811   1.000000
   35        5.408076   1.000000
   36        5.499257   1.000000
   37        5.505353   1.000000
   38        5.528865   1.000000
   39        5.584049   1.000000
   40        5.594214   1.000000
   41        5.669635   1.000000
   42        5.691375   1.000000
   43        5.785199   1.000000
   44        5.803017   1.000000
   45        5.874600   1.000000
   46        5.973649   1.000000
   47        6.004259   1.000000
   48        6.021070   1.000000
   49        6.069425   1.000000
   50        6.117048   1.000000
   51        6.142181   1.000000
   52        6.162130   1.000000
   53        6.171889   1.000000
   54        6.246891   0.999955
   55        6.270251   0.999832
   56        6.291116   0.999501
   57        6.305858   0.998975
   58        6.660761   0.026416
   59        6.859863   0.000001
   60        7.042017   0.000000
   61        7.435355   0.000000
   62        7.438407   0.000000
   63        7.488786   0.000000
   64        7.554154   0.000000
   65        7.649535   0.000000
   66        7.721018   0.000000
   67        7.830012   0.000000
   68        7.876393   0.000000
