 running on    4 total cores
 distrk:  each k-point on    4 cores,    1 groups
 distr:  one band on    1 cores,    4 groups
 using from now: INCAR     
 vasp.5.4.4.18Apr17-6-g9f103f2a35 (build Jul 11 2019 11:52:51) complex          
  
 POSCAR found type information on POSCAR  V  Fe
 POSCAR found :  2 types and      20 ions
 scaLAPACK will be used

 ----------------------------------------------------------------------------- 
|                                                                             |
|  ADVICE TO THIS USER RUNNING 'VASP/VAMP'   (HEAR YOUR MASTER'S VOICE ...):  |
|                                                                             |
|      You have a (more or less) 'large supercell' and for larger cells       |
|      it might be more efficient to use real space projection opertators     |
|      So try LREAL= Auto  in the INCAR   file.                               |
|      Mind:          For very  accurate calculation you might also keep the  |
|      reciprocal projection scheme          (i.e. LREAL=.FALSE.)             |
|                                                                             |
 ----------------------------------------------------------------------------- 

 LDA part: xc-table for Pade appr. of Perdew
 POSCAR, INCAR and KPOINTS ok, starting setup
 FFT: planning ...
 WAVECAR not read
 entering main loop
       N       E                     dE             d eps       ncg     rms          rms(c)
DAV:   1     0.690695744741E+03    0.69070E+03   -0.23346E+04  1088   0.112E+03
DAV:   2    -0.328796545644E+02   -0.72358E+03   -0.69730E+03  1088   0.337E+02
DAV:   3    -0.161901275296E+03   -0.12902E+03   -0.12127E+03  1824   0.162E+02
DAV:   4    -0.176518124603E+03   -0.14617E+02   -0.13865E+02  1776   0.691E+01
DAV:   5    -0.177507767528E+03   -0.98964E+00   -0.95506E+00  1808   0.138E+01    0.652E+01
DAV:   6    -0.331188862138E+03   -0.15368E+03   -0.19495E+03  2176   0.356E+02    0.258E+02
DAV:   7    -0.208099103452E+03    0.12309E+03   -0.61608E+02  1908   0.146E+02    0.632E+01
DAV:   8    -0.156878396447E+03    0.51221E+02   -0.30176E+02  2048   0.122E+02    0.386E+01
DAV:   9    -0.158113288397E+03   -0.12349E+01   -0.15975E+02  2120   0.104E+02    0.366E+01
DAV:  10    -0.160575550321E+03   -0.24623E+01   -0.74191E+01  2176   0.793E+01    0.304E+01
DAV:  11    -0.152073230081E+03    0.85023E+01   -0.56795E+01  2016   0.676E+01    0.174E+01
DAV:  12    -0.151689422451E+03    0.38381E+00   -0.12066E+01  2064   0.267E+01    0.137E+01
DAV:  13    -0.151422928826E+03    0.26649E+00   -0.24338E+00  1984   0.144E+01    0.112E+01
DAV:  14    -0.151282933321E+03    0.14000E+00   -0.14148E+00  2048   0.107E+01    0.991E+00
DAV:  15    -0.151307715255E+03   -0.24782E-01   -0.10718E+00  2104   0.864E+00    0.905E+00
DAV:  16    -0.151230216529E+03    0.77499E-01   -0.10219E+00  2032   0.788E+00    0.701E+00
DAV:  17    -0.151172915187E+03    0.57301E-01   -0.37021E-01  1744   0.464E+00    0.601E+00
DAV:  18    -0.151171677856E+03    0.12373E-02   -0.11997E-01  1792   0.270E+00    0.515E+00
DAV:  19    -0.151164205779E+03    0.74721E-02   -0.48154E-02  1864   0.199E+00    0.456E+00
DAV:  20    -0.151166470334E+03   -0.22646E-02   -0.43876E-02  1976   0.161E+00    0.395E+00
DAV:  21    -0.151161832327E+03    0.46380E-02   -0.20774E-02  1864   0.114E+00    0.312E+00
DAV:  22    -0.151159369484E+03    0.24628E-02   -0.50439E-03  1984   0.578E-01    0.281E+00
DAV:  23    -0.151156616509E+03    0.27530E-02   -0.95134E-03  2136   0.745E-01    0.229E+00
DAV:  24    -0.151155931923E+03    0.68459E-03   -0.36540E-03  1776   0.471E-01    0.189E+00
DAV:  25    -0.151156173778E+03   -0.24186E-03   -0.54227E-03  2168   0.572E-01    0.151E+00
DAV:  26    -0.151155725119E+03    0.44866E-03   -0.61414E-04  1744   0.186E-01    0.130E+00
DAV:  27    -0.151153889728E+03    0.18354E-02   -0.51269E-03  2176   0.497E-01    0.626E-01
DAV:  28    -0.151153815667E+03    0.74061E-04   -0.88837E-04  1776   0.209E-01    0.568E-01
DAV:  29    -0.151153669718E+03    0.14595E-03   -0.41153E-04  1904   0.163E-01    0.261E-01
DAV:  30    -0.151153643522E+03    0.26196E-04   -0.18047E-04  1784   0.982E-02    0.150E-01
DAV:  31    -0.151153633741E+03    0.97810E-05   -0.42999E-05  1040   0.577E-02
   1 F= -.15115363E+03 E0= -.15108552E+03  d E =-.151154E+03
 curvature:   0.00 expect dE= 0.000E+00 dE for cont linesearch  0.000E+00
 trial: gam= 0.00000 g(F)=  0.121E+02 g(S)=  0.155E+02 ort = 0.000E+00 (trialstep = 0.100E+01)
 search vector abs. value=  0.276E+02
 bond charge predicted
       N       E                     dE             d eps       ncg     rms          rms(c)
DAV:   1    -0.199012676825E+03   -0.47859E+02   -0.27289E+03  1088   0.373E+02    0.106E+02
DAV:   2    -0.455233721799E+03   -0.25622E+03   -0.38992E+03  1936   0.301E+02    0.186E+02
DAV:   3    -0.166220740431E+03    0.28901E+03   -0.11255E+03  1468   0.245E+02    0.833E+01
DAV:   4    -0.190128460148E+03   -0.23908E+02   -0.14724E+03  2176   0.181E+02    0.670E+01
DAV:   5    -0.184043567940E+03    0.60849E+01   -0.53536E+02  1984   0.108E+02    0.539E+01
DAV:   6    -0.167573297341E+03    0.16470E+02   -0.13080E+02  1848   0.651E+01    0.423E+01
DAV:   7    -0.160393949190E+03    0.71793E+01   -0.34191E+01  2160   0.353E+01    0.336E+01
DAV:   8    -0.159077916815E+03    0.13160E+01   -0.34461E+01  2096   0.355E+01    0.298E+01
DAV:   9    -0.160343772060E+03   -0.12659E+01   -0.31277E+01  2112   0.293E+01    0.377E+01
DAV:  10    -0.160543377081E+03   -0.19961E+00   -0.77115E+00  1960   0.147E+01    0.386E+01
DAV:  11    -0.159148194941E+03    0.13952E+01   -0.48817E+00  2112   0.115E+01    0.336E+01
DAV:  12    -0.158776198947E+03    0.37200E+00   -0.15334E+01  2176   0.181E+01    0.299E+01
DAV:  13    -0.158425192326E+03    0.35101E+00   -0.21106E+01  2144   0.240E+01    0.227E+01
DAV:  14    -0.157847666133E+03    0.57753E+00   -0.18814E+01  2120   0.252E+01    0.262E+01
DAV:  15    -0.156475420141E+03    0.13722E+01   -0.46436E+00  2112   0.128E+01    0.185E+01
DAV:  16    -0.155542321537E+03    0.93310E+00   -0.33865E+00  2136   0.101E+01    0.107E+01
DAV:  17    -0.155196982592E+03    0.34534E+00   -0.22564E+00  2104   0.783E+00    0.448E+00
DAV:  18    -0.155184148259E+03    0.12834E-01   -0.28981E-01  1912   0.320E+00    0.380E+00
DAV:  19    -0.155167385963E+03    0.16762E-01   -0.15320E-01  1960   0.241E+00    0.373E+00
DAV:  20    -0.155144949868E+03    0.22436E-01   -0.63050E-02  1888   0.148E+00    0.306E+00
DAV:  21    -0.155118058619E+03    0.26891E-01   -0.14465E-01  2136   0.198E+00    0.158E+00
DAV:  22    -0.155116124830E+03    0.19338E-02   -0.73775E-02  2104   0.142E+00    0.141E+00
DAV:  23    -0.155112273989E+03    0.38508E-02   -0.17891E-02  2104   0.895E-01    0.894E-01
DAV:  24    -0.155111711065E+03    0.56292E-03   -0.10546E-02  1984   0.574E-01    0.758E-01
DAV:  25    -0.155110671953E+03    0.10391E-02   -0.47720E-03  2152   0.399E-01    0.497E-01
DAV:  26    -0.155110699777E+03   -0.27824E-04   -0.36622E-03  2008   0.318E-01    0.490E-01
DAV:  27    -0.155110374603E+03    0.32517E-03   -0.16279E-03  2120   0.213E-01    0.382E-01
DAV:  28    -0.155110220979E+03    0.15362E-03   -0.31625E-04  1864   0.109E-01    0.336E-01
DAV:  29    -0.155109838591E+03    0.38239E-03   -0.12935E-03  2088   0.197E-01    0.934E-02
DAV:  30    -0.155109831356E+03    0.72347E-05   -0.27581E-04  1832   0.876E-02    0.722E-02
DAV:  31    -0.155109812619E+03    0.18737E-04   -0.69745E-05  1360   0.493E-02    0.344E-02
DAV:  32    -0.155109811740E+03    0.87863E-06   -0.11570E-05   792   0.298E-02
   2 F= -.15510981E+03 E0= -.15500074E+03  d E =-.395618E+01
 trial-energy change:   -3.956178  1 .order   -5.636102  -27.558724   16.286519
 step:   0.5723(harm=  0.6285)  dis= 0.15976  next Energy=  -158.724354 (dE=-0.757E+01)
 bond charge predicted
       N       E                     dE             d eps       ncg     rms          rms(c)
DAV:   1    -0.173341466139E+03   -0.18232E+02   -0.37528E+02  1088   0.120E+02    0.505E+01
DAV:   2    -0.332302740159E+03   -0.15896E+03   -0.11136E+03  2008   0.309E+02    0.209E+02
DAV:   3    -0.250812326428E+03    0.81490E+02   -0.53659E+02  1848   0.103E+02    0.731E+01
DAV:   4    -0.170680658382E+03    0.80132E+02   -0.26856E+02  1936   0.882E+01    0.385E+01
DAV:   5    -0.161516379687E+03    0.91643E+01   -0.79706E+01  2064   0.642E+01    0.236E+01
DAV:   6    -0.161255790746E+03    0.26059E+00   -0.37489E+01  2080   0.447E+01    0.240E+01
DAV:   7    -0.161417506559E+03   -0.16172E+00   -0.26375E+01  2096   0.375E+01    0.229E+01
DAV:   8    -0.159983324443E+03    0.14342E+01   -0.91070E+00  2064   0.220E+01    0.183E+01
DAV:   9    -0.158756006389E+03    0.12273E+01   -0.65933E+00  2176   0.159E+01    0.758E+00
DAV:  10    -0.159076263586E+03   -0.32026E+00   -0.34713E+00  2160   0.115E+01    0.107E+01
DAV:  11    -0.158809902238E+03    0.26636E+00   -0.14663E+00  2160   0.893E+00    0.700E+00
DAV:  12    -0.158676590348E+03    0.13331E+00   -0.73921E-01  2160   0.610E+00    0.426E+00
DAV:  13    -0.158704868279E+03   -0.28278E-01   -0.75501E-01  2136   0.563E+00    0.475E+00
DAV:  14    -0.158660040990E+03    0.44827E-01   -0.37870E-01  2096   0.439E+00    0.300E+00
DAV:  15    -0.158649776975E+03    0.10264E-01   -0.10605E-01  1832   0.214E+00    0.262E+00
DAV:  16    -0.158648857253E+03    0.91972E-03   -0.36094E-02  1984   0.118E+00    0.217E+00
DAV:  17    -0.158647784150E+03    0.10731E-02   -0.16463E-02  1968   0.756E-01    0.177E+00
DAV:  18    -0.158647283568E+03    0.50058E-03   -0.29021E-03  1832   0.371E-01    0.165E+00
DAV:  19    -0.158646930154E+03    0.35341E-03   -0.28178E-03  1960   0.347E-01    0.130E+00
DAV:  20    -0.158646319360E+03    0.61079E-03   -0.12848E-03  2072   0.232E-01    0.113E+00
DAV:  21    -0.158645874364E+03    0.44500E-03   -0.16313E-03  2064   0.240E-01    0.868E-01
DAV:  22    -0.158645462827E+03    0.41154E-03   -0.12645E-03  2120   0.210E-01    0.603E-01
DAV:  23    -0.158645435975E+03    0.26851E-04   -0.36635E-04  1784   0.126E-01    0.469E-01
DAV:  24    -0.158645348970E+03    0.87006E-04   -0.23493E-04  1968   0.102E-01    0.287E-01
DAV:  25    -0.158645328045E+03    0.20925E-04   -0.12362E-04  1760   0.688E-02    0.203E-01
DAV:  26    -0.158645312084E+03    0.15960E-04   -0.73628E-05  1448   0.552E-02    0.749E-02
DAV:  27    -0.158645314781E+03   -0.26961E-05   -0.35216E-05   832   0.520E-02
   3 F= -.15864531E+03 E0= -.15855378E+03  d E =-.749168E+01
 curvature:  -0.31 expect dE=-0.142E+01 dE for cont linesearch -0.228E-01
 ZBRENT: interpolating
 opt :   0.5440  next Energy=  -158.665515 (dE=-0.751E+01)
 bond charge predicted
       N       E                     dE             d eps       ncg     rms          rms(c)
DAV:   1    -0.158726371816E+03   -0.81060E-01   -0.18490E+00  1092   0.920E+00    0.381E+00
DAV:   2    -0.162794857663E+03   -0.40685E+01   -0.21233E+01  2144   0.353E+01    0.263E+01
DAV:   3    -0.158582391289E+03    0.42125E+01   -0.16210E+01  2176   0.349E+01    0.254E+00
DAV:   4    -0.158669282680E+03   -0.86891E-01   -0.15580E+00  1832   0.762E+00    0.138E+00
DAV:   5    -0.158687929672E+03   -0.18647E-01   -0.28239E-01  2056   0.372E+00    0.238E+00
DAV:   6    -0.158671513408E+03    0.16416E-01   -0.11861E-01  2088   0.252E+00    0.153E+00
DAV:   7    -0.158666651479E+03    0.48619E-02   -0.44944E-02  2152   0.151E+00    0.119E+00
DAV:   8    -0.158662981219E+03    0.36703E-02   -0.23876E-02  2128   0.117E+00    0.741E-01
DAV:   9    -0.158660798451E+03    0.21828E-02   -0.17099E-02  2136   0.892E-01    0.269E-01
DAV:  10    -0.158660682816E+03    0.11563E-03   -0.55758E-03  1832   0.479E-01    0.229E-01
DAV:  11    -0.158660574887E+03    0.10793E-03   -0.21305E-03  1928   0.301E-01    0.155E-01
DAV:  12    -0.158660476238E+03    0.98649E-04   -0.17237E-03  1792   0.285E-01    0.984E-02
DAV:  13    -0.158660514763E+03   -0.38526E-04   -0.98514E-04  1984   0.207E-01    0.991E-02
DAV:  14    -0.158660426590E+03    0.88173E-04   -0.56418E-04  1840   0.179E-01    0.486E-02
DAV:  15    -0.158660427433E+03   -0.84231E-06   -0.11017E-04  1664   0.691E-02    0.434E-02
DAV:  16    -0.158660421422E+03    0.60110E-05   -0.22025E-05   784   0.476E-02
   4 F= -.15866042E+03 E0= -.15857009E+03  d E =-.750679E+01
 curvature:  -0.27 expect dE=-0.112E+01 dE for cont linesearch -0.320E-03
 trial: gam= 0.15543 g(F)=  0.236E+01 g(S)=  0.174E+01 ort =-0.180E+00 (trialstep = 0.909E+00)
 search vector abs. value=  0.471E+01
 bond charge predicted
       N       E                     dE             d eps       ncg     rms          rms(c)
DAV:   1    -0.163488896459E+03   -0.48285E+01   -0.24593E+02  1088   0.607E+01    0.160E+01
DAV:   2    -0.195212169359E+03   -0.31723E+02   -0.22013E+02  2048   0.129E+02    0.571E+01
DAV:   3    -0.162077787263E+03    0.33134E+02   -0.11707E+02  2056   0.788E+01    0.134E+01
DAV:   4    -0.162806375078E+03   -0.72859E+00   -0.20492E+01  2128   0.329E+01    0.126E+01
DAV:   5    -0.162401120877E+03    0.40525E+00   -0.80711E+00  2160   0.229E+01    0.949E+00
DAV:   6    -0.162116198598E+03    0.28492E+00   -0.41321E+00  2120   0.143E+01    0.606E+00
DAV:   7    -0.162191483953E+03   -0.75285E-01   -0.29654E+00  2160   0.125E+01    0.790E+00
DAV:   8    -0.161975995551E+03    0.21549E+00   -0.17695E+00  2128   0.100E+01    0.462E+00
DAV:   9    -0.161953321312E+03    0.22674E-01   -0.51645E-01  2120   0.485E+00    0.394E+00
DAV:  10    -0.161903406502E+03    0.49915E-01   -0.22881E-01  2168   0.355E+00    0.271E+00
DAV:  11    -0.161883901604E+03    0.19505E-01   -0.75018E-02  2176   0.194E+00    0.199E+00
DAV:  12    -0.161875272498E+03    0.86291E-02   -0.66101E-02  2048   0.165E+00    0.126E+00
DAV:  13    -0.161868175438E+03    0.70971E-02   -0.33948E-02  2152   0.123E+00    0.593E-01
DAV:  14    -0.161868185848E+03   -0.10411E-04   -0.56094E-03  1832   0.498E-01    0.504E-01
DAV:  15    -0.161867541793E+03    0.64406E-03   -0.26645E-03  1880   0.352E-01    0.362E-01
DAV:  16    -0.161867428022E+03    0.11377E-03   -0.10647E-03  1784   0.212E-01    0.314E-01
DAV:  17    -0.161867074196E+03    0.35383E-03   -0.10178E-03  2168   0.223E-01    0.136E-01
DAV:  18    -0.161867017527E+03    0.56669E-04   -0.31583E-04  1960   0.109E-01    0.755E-02
DAV:  19    -0.161867004368E+03    0.13158E-04   -0.13901E-04  1712   0.778E-02    0.403E-02
DAV:  20    -0.161866993446E+03    0.10922E-04   -0.56135E-05  1160   0.569E-02    0.193E-02
DAV:  21    -0.161866993620E+03   -0.17425E-06   -0.14119E-05   760   0.275E-02
   5 F= -.16186699E+03 E0= -.16177998E+03  d E =-.320657E+01
 trial-energy change:   -3.206572  1 .order   -3.161245   -3.703860   -2.618631
 step:   2.2598(harm=  3.1017)  dis= 0.31926  next Energy=  -163.962339 (dE=-0.530E+01)
 bond charge predicted
       N       E                     dE             d eps       ncg     rms          rms(c)
DAV:   1    -0.166452128909E+03   -0.45851E+01   -0.53539E+02  1088   0.884E+01    0.213E+01
DAV:   2    -0.207347665002E+03   -0.40896E+02   -0.32910E+02  1936   0.170E+02    0.661E+01
DAV:   3    -0.165273329108E+03    0.42074E+02   -0.15978E+02  2040   0.921E+01    0.178E+01
DAV:   4    -0.165471887394E+03   -0.19856E+00   -0.36153E+01  2128   0.458E+01    0.143E+01
DAV:   5    -0.164646574247E+03    0.82531E+00   -0.13826E+01  2120   0.299E+01    0.956E+00
DAV:   6    -0.164474781811E+03    0.17179E+00   -0.80160E+00  2088   0.218E+01    0.819E+00
DAV:   7    -0.164344848126E+03    0.12993E+00   -0.52012E+00  2144   0.180E+01    0.815E+00
DAV:   8    -0.164091789295E+03    0.25306E+00   -0.23835E+00  2128   0.126E+01    0.568E+00
DAV:   9    -0.164027587130E+03    0.64202E-01   -0.80137E-01  2152   0.681E+00    0.416E+00
DAV:  10    -0.163934267207E+03    0.93320E-01   -0.39750E-01  2152   0.471E+00    0.201E+00
DAV:  11    -0.163935885939E+03   -0.16187E-02   -0.12144E-01  2160   0.261E+00    0.182E+00
DAV:  12    -0.163922853142E+03    0.13033E-01   -0.63157E-02  2160   0.213E+00    0.886E-01
DAV:  13    -0.163921642499E+03    0.12106E-02   -0.17412E-02  1984   0.972E-01    0.719E-01
DAV:  14    -0.163920934767E+03    0.70773E-03   -0.49253E-03  1880   0.537E-01    0.553E-01
DAV:  15    -0.163920247788E+03    0.68698E-03   -0.24513E-03  2000   0.371E-01    0.423E-01
DAV:  16    -0.163919690368E+03    0.55742E-03   -0.20555E-03  2176   0.324E-01    0.221E-01
DAV:  17    -0.163919474418E+03    0.21595E-03   -0.11032E-03  2008   0.225E-01    0.975E-02
DAV:  18    -0.163919466455E+03    0.79632E-05   -0.21034E-04  1832   0.101E-01    0.679E-02
DAV:  19    -0.163919446999E+03    0.19456E-04   -0.93249E-05  1480   0.732E-02    0.411E-02
DAV:  20    -0.163919440224E+03    0.67747E-05   -0.25906E-05   848   0.499E-02
   6 F= -.16391944E+03 E0= -.16384451E+03  d E =-.525902E+01
 curvature:  -1.53 expect dE=-0.544E+01 dE for cont linesearch -0.650E-02
 trial: gam= 1.04373 g(F)=  0.271E+01 g(S)=  0.845E+00 ort =-0.142E+00 (trialstep = 0.662E+00)
 search vector abs. value=  0.839E+01
 bond charge predicted
       N       E                     dE             d eps       ncg     rms          rms(c)
DAV:   1    -0.165338636983E+03   -0.14192E+01   -0.26815E+02  1096   0.643E+01    0.843E+00
DAV:   2    -0.180261371038E+03   -0.14923E+02   -0.10581E+02  2152   0.870E+01    0.427E+01
DAV:   3    -0.165467389980E+03    0.14794E+02   -0.50878E+01  2104   0.531E+01    0.591E+00
DAV:   4    -0.165838016562E+03   -0.37063E+00   -0.75714E+00  2144   0.173E+01    0.550E+00
DAV:   5    -0.165737751035E+03    0.10027E+00   -0.18373E+00  2096   0.111E+01    0.433E+00
DAV:   6    -0.165686440300E+03    0.51311E-01   -0.13734E+00  2176   0.954E+00    0.384E+00
DAV:   7    -0.165764597199E+03   -0.78157E-01   -0.13351E+00  2144   0.948E+00    0.478E+00
DAV:   8    -0.165598834196E+03    0.16576E+00   -0.94759E-01  2176   0.754E+00    0.129E+00
DAV:   9    -0.165596825948E+03    0.20082E-02   -0.19065E-01  2176   0.338E+00    0.103E+00
DAV:  10    -0.165590088421E+03    0.67375E-02   -0.54687E-02  1800   0.178E+00    0.486E-01
DAV:  11    -0.165588949956E+03    0.11385E-02   -0.18162E-02  2176   0.995E-01    0.287E-01
DAV:  12    -0.165589359703E+03   -0.40975E-03   -0.88839E-03  2176   0.720E-01    0.325E-01
DAV:  13    -0.165588487230E+03    0.87247E-03   -0.67758E-03  2112   0.610E-01    0.109E-01
DAV:  14    -0.165588501539E+03   -0.14309E-04   -0.12300E-03  1784   0.246E-01    0.878E-02
DAV:  15    -0.165588432256E+03    0.69283E-04   -0.49454E-04  1728   0.156E-01    0.280E-02
DAV:  16    -0.165588446962E+03   -0.14706E-04   -0.16410E-04  1688   0.908E-02    0.378E-02
DAV:  17    -0.165588433475E+03    0.13487E-04   -0.75052E-05  1264   0.716E-02    0.145E-02
DAV:  18    -0.165588434594E+03   -0.11185E-05   -0.22806E-05   784   0.351E-02
   7 F= -.16558843E+03 E0= -.16551128E+03  d E =-.166899E+01
 trial-energy change:   -1.668994  1 .order   -1.675771   -2.255502   -1.096040
 step:   1.3356(harm=  1.2879)  dis= 0.21192  next Energy=  -166.138782 (dE=-0.222E+01)
 bond charge predicted
       N       E                     dE             d eps       ncg     rms          rms(c)
DAV:   1    -0.165932641849E+03   -0.34421E+00   -0.27950E+02  1104   0.657E+01    0.814E+00
DAV:   2    -0.179033802555E+03   -0.13101E+02   -0.96343E+01  2120   0.816E+01    0.404E+01
DAV:   3    -0.166062292528E+03    0.12972E+02   -0.51341E+01  2112   0.539E+01    0.577E+00
DAV:   4    -0.166435754062E+03   -0.37346E+00   -0.75166E+00  2176   0.179E+01    0.612E+00
DAV:   5    -0.166305745937E+03    0.13001E+00   -0.20755E+00  2128   0.121E+01    0.446E+00
DAV:   6    -0.166195972086E+03    0.10977E+00   -0.15579E+00  2168   0.954E+00    0.289E+00
DAV:   7    -0.166219426464E+03   -0.23454E-01   -0.91669E-01  2176   0.757E+00    0.316E+00
DAV:   8    -0.166131981746E+03    0.87445E-01   -0.64956E-01  2160   0.578E+00    0.918E-01
DAV:   9    -0.166138217267E+03   -0.62355E-02   -0.13517E-01  2000   0.259E+00    0.118E+00
DAV:  10    -0.166127617631E+03    0.10600E-01   -0.55533E-02  2176   0.184E+00    0.318E-01
DAV:  11    -0.166127409982E+03    0.20765E-03   -0.10158E-02  1840   0.725E-01    0.251E-01
DAV:  12    -0.166127247657E+03    0.16233E-03   -0.51008E-03  1864   0.525E-01    0.200E-01
DAV:  13    -0.166127026390E+03    0.22127E-03   -0.30339E-03  2176   0.457E-01    0.119E-01
DAV:  14    -0.166126951772E+03    0.74618E-04   -0.62734E-04  2176   0.216E-01    0.528E-02
DAV:  15    -0.166126934441E+03    0.17331E-04   -0.22302E-04  1720   0.993E-02    0.259E-02
DAV:  16    -0.166126935172E+03   -0.73138E-06   -0.61418E-05  1240   0.595E-02
   8 F= -.16612694E+03 E0= -.16604807E+03  d E =-.220749E+01
 curvature:  -1.58 expect dE=-0.286E+01 dE for cont linesearch -0.747E-03
 trial: gam= 0.19253 g(F)=  0.172E+01 g(S)=  0.878E-01 ort =-0.631E-01 (trialstep = 0.797E+00)
 search vector abs. value=  0.210E+01
 bond charge predicted
       N       E                     dE             d eps       ncg     rms          rms(c)
DAV:   1    -0.167213090409E+03   -0.10862E+01   -0.97412E+01  1088   0.346E+01    0.358E+00
DAV:   2    -0.169243974315E+03   -0.20309E+01   -0.17900E+01  2168   0.312E+01    0.139E+01
DAV:   3    -0.167354405453E+03    0.18896E+01   -0.11766E+01  2176   0.267E+01    0.279E+00
DAV:   4    -0.167385846282E+03   -0.31441E-01   -0.10121E+00  2016   0.728E+00    0.273E+00
DAV:   5    -0.167357224604E+03    0.28622E-01   -0.37954E-01  2104   0.512E+00    0.181E+00
DAV:   6    -0.167347105025E+03    0.10120E-01   -0.34189E-01  2136   0.454E+00    0.150E+00
DAV:   7    -0.167355123659E+03   -0.80186E-02   -0.25110E-01  2160   0.394E+00    0.188E+00
DAV:   8    -0.167332103057E+03    0.23021E-01   -0.14904E-01  2144   0.304E+00    0.683E-01
DAV:   9    -0.167330339567E+03    0.17635E-02   -0.23563E-02  2144   0.133E+00    0.428E-01
DAV:  10    -0.167329135805E+03    0.12038E-02   -0.10747E-02  2136   0.750E-01    0.178E-01
DAV:  11    -0.167328940904E+03    0.19490E-03   -0.27605E-03  2120   0.378E-01    0.838E-02
DAV:  12    -0.167329014086E+03   -0.73183E-04   -0.10205E-03  2168   0.242E-01    0.119E-01
DAV:  13    -0.167328900988E+03    0.11310E-03   -0.67526E-04  2160   0.196E-01    0.280E-02
DAV:  14    -0.167328909475E+03   -0.84865E-05   -0.18183E-04  1720   0.932E-02    0.351E-02
DAV:  15    -0.167328895309E+03    0.14166E-04   -0.71690E-05  1312   0.661E-02    0.103E-02
DAV:  16    -0.167328895218E+03    0.91015E-07   -0.15014E-05   688   0.338E-02
   9 F= -.16732890E+03 E0= -.16725480E+03  d E =-.120196E+01
 trial-energy change:   -1.201960  1 .order   -1.197693   -1.433133   -0.962252
 step:   2.2114(harm=  2.4249)  dis= 0.21903  next Energy=  -168.207041 (dE=-0.208E+01)
 bond charge predicted
       N       E                     dE             d eps       ncg     rms          rms(c)
DAV:   1    -0.167774843307E+03   -0.44595E+00   -0.31174E+02  1088   0.663E+01    0.619E+00
DAV:   2    -0.174213959639E+03   -0.64391E+01   -0.58358E+01  2176   0.534E+01    0.253E+01
DAV:   3    -0.168338679337E+03    0.58753E+01   -0.39304E+01  2088   0.485E+01    0.551E+00
DAV:   4    -0.168387748481E+03   -0.49069E-01   -0.42619E+00  1920   0.141E+01    0.388E+00
DAV:   5    -0.168403737635E+03   -0.15989E-01   -0.13364E+00  2112   0.925E+00    0.403E+00
DAV:   6    -0.168288152056E+03    0.11559E+00   -0.10403E+00  2136   0.808E+00    0.208E+00
DAV:   7    -0.168364381170E+03   -0.76229E-01   -0.89368E-01  2160   0.765E+00    0.408E+00
DAV:   8    -0.168281388745E+03    0.82992E-01   -0.71595E-01  2160   0.670E+00    0.206E+00
DAV:   9    -0.168254551443E+03    0.26837E-01   -0.18380E-01  2168   0.311E+00    0.683E-01
DAV:  10    -0.168254371245E+03    0.18020E-03   -0.31279E-02  2096   0.135E+00    0.544E-01
DAV:  11    -0.168252193732E+03    0.21775E-02   -0.15220E-02  2096   0.993E-01    0.216E-01
DAV:  12    -0.168252274391E+03   -0.80659E-04   -0.52741E-03  2152   0.564E-01    0.205E-01
DAV:  13    -0.168252066847E+03    0.20754E-03   -0.34888E-03  1776   0.395E-01    0.132E-01
DAV:  14    -0.168251930335E+03    0.13651E-03   -0.14127E-03  2176   0.281E-01    0.525E-02
DAV:  15    -0.168251945965E+03   -0.15630E-04   -0.42681E-04  2096   0.152E-01    0.603E-02
DAV:  16    -0.168251911104E+03    0.34862E-04   -0.22673E-04  1680   0.979E-02    0.163E-02
DAV:  17    -0.168251911807E+03   -0.70338E-06   -0.36268E-05  1096   0.474E-02
  10 F= -.16825191E+03 E0= -.16818072E+03  d E =-.212498E+01
 curvature:  -1.39 expect dE=-0.139E+01 dE for cont linesearch -0.644E-02
 trial: gam= 0.45346 g(F)=  0.644E+00 g(S)=  0.356E+00 ort = 0.986E-01 (trialstep = 0.108E+01)
 search vector abs. value=  0.152E+01
 bond charge predicted
       N       E                     dE             d eps       ncg     rms          rms(c)
DAV:   1    -0.170463249578E+03   -0.22113E+01   -0.12361E+02  1128   0.558E+01    0.176E+01
DAV:   2    -0.203211836814E+03   -0.32749E+02   -0.23950E+02  1896   0.158E+02    0.636E+01
DAV:   3    -0.169929799494E+03    0.33282E+02   -0.13609E+02  1936   0.842E+01    0.163E+01
DAV:   4    -0.169631582419E+03    0.29822E+00   -0.24251E+01  2160   0.371E+01    0.957E+00
DAV:   5    -0.169121642031E+03    0.50994E+00   -0.74742E+00  2064   0.219E+01    0.507E+00
DAV:   6    -0.169186051013E+03   -0.64409E-01   -0.24326E+00  2040   0.135E+01    0.505E+00
DAV:   7    -0.169012239842E+03    0.17381E+00   -0.13977E+00  2128   0.995E+00    0.322E+00
DAV:   8    -0.169012978270E+03   -0.73843E-03   -0.31492E-01  2168   0.457E+00    0.317E+00
DAV:   9    -0.168997158004E+03    0.15820E-01   -0.18226E-01  2080   0.392E+00    0.242E+00
DAV:  10    -0.168974841325E+03    0.22317E-01   -0.11824E-01  2144   0.267E+00    0.163E+00
DAV:  11    -0.168968513336E+03    0.63280E-02   -0.41704E-02  2176   0.144E+00    0.110E+00
DAV:  12    -0.168963312636E+03    0.52007E-02   -0.22547E-02  2176   0.108E+00    0.554E-01
DAV:  13    -0.168963192407E+03    0.12023E-03   -0.26289E-03  1808   0.374E-01    0.458E-01
DAV:  14    -0.168962953290E+03    0.23912E-03   -0.85638E-04  2112   0.229E-01    0.341E-01
DAV:  15    -0.168962857136E+03    0.96154E-04   -0.47407E-04  1984   0.151E-01    0.293E-01
DAV:  16    -0.168962574759E+03    0.28238E-03   -0.71495E-04  2176   0.209E-01    0.133E-01
DAV:  17    -0.168962540305E+03    0.34454E-04   -0.24246E-04  1864   0.105E-01    0.962E-02
DAV:  18    -0.168962505813E+03    0.34491E-04   -0.97958E-05  1696   0.746E-02    0.457E-02
DAV:  19    -0.168962502958E+03    0.28550E-05   -0.18919E-05   800   0.381E-02
  11 F= -.16896250E+03 E0= -.16889837E+03  d E =-.710591E+00
 trial-energy change:   -0.710591  1 .order   -0.688271   -1.128835   -0.247708
 step:   1.3352(harm=  1.3832)  dis= 0.09868  next Energy=  -168.992108 (dE=-0.740E+00)
 bond charge predicted
       N       E                     dE             d eps       ncg     rms          rms(c)
DAV:   1    -0.169073562400E+03   -0.11106E+00   -0.73108E+00  1124   0.147E+01    0.417E+00
DAV:   2    -0.171974782913E+03   -0.29012E+01   -0.18671E+01  2176   0.408E+01    0.209E+01
DAV:   3    -0.168935986483E+03    0.30388E+01   -0.14703E+01  2176   0.354E+01    0.201E+00
DAV:   4    -0.169023356666E+03   -0.87370E-01   -0.13652E+00  1864   0.814E+00    0.194E+00
DAV:   5    -0.169009258182E+03    0.14098E-01   -0.24723E-01  1912   0.463E+00    0.151E+00
DAV:   6    -0.169004387581E+03    0.48706E-02   -0.10202E-01  2008   0.284E+00    0.127E+00
DAV:   7    -0.168997306502E+03    0.70811E-02   -0.66433E-02  2080   0.226E+00    0.753E-01
DAV:   8    -0.168993935498E+03    0.33710E-02   -0.26582E-02  2152   0.139E+00    0.248E-01
DAV:   9    -0.168994382539E+03   -0.44704E-03   -0.77304E-03  2040   0.686E-01    0.330E-01
DAV:  10    -0.168993708158E+03    0.67438E-03   -0.30725E-03  2160   0.459E-01    0.166E-01
DAV:  11    -0.168993762803E+03   -0.54645E-04   -0.16083E-03  2032   0.290E-01    0.159E-01
DAV:  12    -0.168993604993E+03    0.15781E-03   -0.99795E-04  2168   0.244E-01    0.679E-02
DAV:  13    -0.168993584674E+03    0.20320E-04   -0.21611E-04  1760   0.108E-01    0.514E-02
DAV:  14    -0.168993581591E+03    0.30829E-05   -0.35433E-05   960   0.561E-02
  12 F= -.16899358E+03 E0= -.16893286E+03  d E =-.741670E+00
 curvature:  -0.98 expect dE=-0.152E+01 dE for cont linesearch -0.566E-05
 trial: gam= 1.47113 g(F)=  0.662E+00 g(S)=  0.887E+00 ort = 0.296E-02 (trialstep = 0.355E+00)
 search vector abs. value=  0.485E+01
 bond charge predicted
       N       E                     dE             d eps       ncg     rms          rms(c)
DAV:   1    -0.169427528227E+03   -0.43394E+00   -0.44044E+01  1088   0.246E+01    0.242E+00
DAV:   2    -0.170148705478E+03   -0.72118E+00   -0.67161E+00  1976   0.199E+01    0.801E+00
DAV:   3    -0.169486604513E+03    0.66210E+00   -0.38710E+00  2168   0.160E+01    0.180E+00
DAV:   4    -0.169499133966E+03   -0.12529E-01   -0.42946E-01  2168   0.558E+00    0.204E+00
DAV:   5    -0.169486667585E+03    0.12466E-01   -0.29379E-01  2128   0.481E+00    0.182E+00
DAV:   6    -0.169466020648E+03    0.20647E-01   -0.20624E-01  2128   0.406E+00    0.836E-01
DAV:   7    -0.169470233665E+03   -0.42130E-02   -0.97364E-02  2176   0.263E+00    0.105E+00
DAV:   8    -0.169460883561E+03    0.93501E-02   -0.54347E-02  2176   0.188E+00    0.307E-01
DAV:   9    -0.169460515750E+03    0.36781E-03   -0.64092E-03  1984   0.730E-01    0.185E-01
DAV:  10    -0.169460571857E+03   -0.56107E-04   -0.32376E-03  1984   0.502E-01    0.166E-01
DAV:  11    -0.169460331999E+03    0.23986E-03   -0.21540E-03  2104   0.366E-01    0.723E-02
DAV:  12    -0.169460330904E+03    0.10948E-05   -0.52508E-04  1912   0.171E-01    0.592E-02
DAV:  13    -0.169460300549E+03    0.30355E-04   -0.21881E-04  1736   0.108E-01    0.178E-02
DAV:  14    -0.169460302847E+03   -0.22977E-05   -0.52984E-05  1240   0.540E-02
  13 F= -.16946030E+03 E0= -.16940410E+03  d E =-.466721E+00
 trial-energy change:   -0.466721  1 .order   -0.466154   -0.550823   -0.381485
 step:   1.1539(harm=  1.1539)  dis= 0.12694  next Energy=  -169.889441 (dE=-0.896E+00)
 bond charge predicted
       N       E                     dE             d eps       ncg     rms          rms(c)
DAV:   1    -0.169652840126E+03   -0.19254E+00   -0.22951E+02  1088   0.602E+01    0.534E+00
DAV:   2    -0.172810712968E+03   -0.31579E+01   -0.30923E+01  1976   0.427E+01    0.168E+01
DAV:   3    -0.169992226978E+03    0.28185E+01   -0.18393E+01  2168   0.355E+01    0.375E+00
DAV:   4    -0.170075489945E+03   -0.83263E-01   -0.23279E+00  2176   0.126E+01    0.453E+00
DAV:   5    -0.169981058313E+03    0.94432E-01   -0.15743E+00  2160   0.109E+01    0.391E+00
DAV:   6    -0.169905113351E+03    0.75945E-01   -0.98162E-01  2176   0.843E+00    0.222E+00
DAV:   7    -0.169920933802E+03   -0.15820E-01   -0.51928E-01  2176   0.627E+00    0.252E+00
DAV:   8    -0.169870586607E+03    0.50347E-01   -0.32429E-01  2168   0.443E+00    0.786E-01
DAV:   9    -0.169868583096E+03    0.20035E-02   -0.44622E-02  2080   0.181E+00    0.521E-01
DAV:  10    -0.169868183012E+03    0.40008E-03   -0.20264E-02  2080   0.121E+00    0.380E-01
DAV:  11    -0.169866805694E+03    0.13773E-02   -0.11117E-02  2080   0.786E-01    0.125E-01
DAV:  12    -0.169866881615E+03   -0.75921E-04   -0.24898E-03  1768   0.349E-01    0.133E-01
DAV:  13    -0.169866717407E+03    0.16421E-03   -0.12742E-03  1840   0.259E-01    0.411E-02
DAV:  14    -0.169866740935E+03   -0.23528E-04   -0.30960E-04  2144   0.128E-01    0.523E-02
DAV:  15    -0.169866713949E+03    0.26986E-04   -0.18525E-04  1688   0.101E-01    0.128E-02
DAV:  16    -0.169866716801E+03   -0.28519E-05   -0.34510E-05   968   0.505E-02
  14 F= -.16986672E+03 E0= -.16980866E+03  d E =-.873135E+00
 curvature:  -1.80 expect dE=-0.158E+01 dE for cont linesearch -0.248E-03
 trial: gam= 0.15218 g(F)=  0.712E+00 g(S)=  0.166E+00 ort =-0.259E-01 (trialstep = 0.515E+00)
 search vector abs. value=  0.982E+00
 bond charge predicted
       N       E                     dE             d eps       ncg     rms          rms(c)
DAV:   1    -0.170358978954E+03   -0.49227E+00   -0.20284E+01  1176   0.235E+01    0.599E+00
DAV:   2    -0.177395618674E+03   -0.70366E+01   -0.47576E+01  2152   0.596E+01    0.322E+01
DAV:   3    -0.170099504144E+03    0.72961E+01   -0.26235E+01  2120   0.381E+01    0.305E+00
DAV:   4    -0.170282039463E+03   -0.18254E+00   -0.26537E+00  2152   0.105E+01    0.321E+00
DAV:   5    -0.170239856914E+03    0.42183E-01   -0.54332E-01  2152   0.689E+00    0.180E+00
DAV:   6    -0.170220913434E+03    0.18943E-01   -0.30343E-01  2160   0.420E+00    0.106E+00
DAV:   7    -0.170225178933E+03   -0.42655E-02   -0.13988E-01  2168   0.280E+00    0.141E+00
DAV:   8    -0.170211873627E+03    0.13305E-01   -0.83853E-02  2144   0.243E+00    0.595E-01
DAV:   9    -0.170210651635E+03    0.12220E-02   -0.18277E-02  2120   0.119E+00    0.381E-01
DAV:  10    -0.170210057895E+03    0.59374E-03   -0.58857E-03  2048   0.573E-01    0.172E-01
DAV:  11    -0.170209890174E+03    0.16772E-03   -0.19822E-03  1776   0.316E-01    0.106E-01
DAV:  12    -0.170209824220E+03    0.65955E-04   -0.64085E-04  1728   0.193E-01    0.592E-02
DAV:  13    -0.170209802828E+03    0.21391E-04   -0.26278E-04  1712   0.120E-01    0.280E-02
DAV:  14    -0.170209812349E+03   -0.95209E-05   -0.83006E-05  1392   0.662E-02
  15 F= -.17020981E+03 E0= -.17014882E+03  d E =-.343096E+00
 trial-energy change:   -0.343096  1 .order   -0.344698   -0.449673   -0.239724
 step:   1.1705(harm=  1.1022)  dis= 0.07328  next Energy=  -170.359274 (dE=-0.493E+00)
 bond charge predicted
       N       E                     dE             d eps       ncg     rms          rms(c)
DAV:   1    -0.170596898320E+03   -0.38710E+00   -0.32983E+01  1136   0.301E+01    0.765E+00
DAV:   2    -0.182221465787E+03   -0.11625E+02   -0.81541E+01  2136   0.756E+01    0.405E+01
DAV:   3    -0.170153698670E+03    0.12068E+02   -0.39845E+01  2096   0.439E+01    0.372E+00
DAV:   4    -0.170532362926E+03   -0.37866E+00   -0.48738E+00  2152   0.137E+01    0.499E+00
DAV:   5    -0.170410187437E+03    0.12218E+00   -0.99146E-01  2160   0.900E+00    0.224E+00
DAV:   6    -0.170387942026E+03    0.22245E-01   -0.48558E-01  2176   0.516E+00    0.149E+00
DAV:   7    -0.170400955168E+03   -0.13013E-01   -0.25846E-01  2144   0.428E+00    0.223E+00
DAV:   8    -0.170369550105E+03    0.31405E-01   -0.17334E-01  2144   0.344E+00    0.665E-01
DAV:   9    -0.170368975201E+03    0.57490E-03   -0.39236E-02  1848   0.139E+00    0.535E-01
DAV:  10    -0.170367137225E+03    0.18380E-02   -0.12586E-02  1760   0.806E-01    0.224E-01
DAV:  11    -0.170367013214E+03    0.12401E-03   -0.35025E-03  1848   0.421E-01    0.175E-01
DAV:  12    -0.170366815419E+03    0.19780E-03   -0.15654E-03  1768   0.298E-01    0.826E-02
DAV:  13    -0.170366777517E+03    0.37902E-04   -0.57146E-04  1728   0.171E-01    0.462E-02
DAV:  14    -0.170366784197E+03   -0.66805E-05   -0.14594E-04  1656   0.877E-02    0.305E-02
DAV:  15    -0.170366781650E+03    0.25474E-05   -0.95178E-05  1432   0.710E-02
  16 F= -.17036678E+03 E0= -.17030157E+03  d E =-.500065E+00
 curvature:  -0.61 expect dE=-0.548E+00 dE for cont linesearch -0.173E-03
 trial: gam= 1.00875 g(F)=  0.208E+00 g(S)=  0.689E+00 ort = 0.167E-01 (trialstep = 0.329E+00)
 search vector abs. value=  0.193E+01
 bond charge predicted
       N       E                     dE             d eps       ncg     rms          rms(c)
DAV:   1    -0.170693888721E+03   -0.32710E+00   -0.15064E+01  1104   0.167E+01    0.404E+00
DAV:   2    -0.173518855247E+03   -0.28250E+01   -0.18957E+01  2176   0.377E+01    0.211E+01
DAV:   3    -0.170579651365E+03    0.29392E+01   -0.14628E+01  2176   0.333E+01    0.185E+00
DAV:   4    -0.170678317992E+03   -0.98667E-01   -0.14752E+00  1856   0.806E+00    0.235E+00
DAV:   5    -0.170655209059E+03    0.23109E-01   -0.34317E-01  2032   0.489E+00    0.187E+00
DAV:   6    -0.170645291964E+03    0.99171E-02   -0.13152E-01  2080   0.301E+00    0.147E+00
DAV:   7    -0.170637776314E+03    0.75156E-02   -0.74812E-02  2096   0.228E+00    0.919E-01
DAV:   8    -0.170632598163E+03    0.51782E-02   -0.38491E-02  2176   0.159E+00    0.314E-01
DAV:   9    -0.170633280224E+03   -0.68206E-03   -0.15136E-02  2096   0.969E-01    0.440E-01
DAV:  10    -0.170632063071E+03    0.12172E-02   -0.57268E-03  2096   0.599E-01    0.167E-01
DAV:  11    -0.170632055807E+03    0.72631E-05   -0.25312E-03  1784   0.325E-01    0.148E-01
DAV:  12    -0.170631928217E+03    0.12759E-03   -0.11080E-03  2008   0.229E-01    0.647E-02
DAV:  13    -0.170631900723E+03    0.27494E-04   -0.30673E-04  1736   0.117E-01    0.330E-02
DAV:  14    -0.170631901295E+03   -0.57118E-06   -0.40944E-05  1056   0.543E-02
  17 F= -.17063190E+03 E0= -.17056661E+03  d E =-.265120E+00
 trial-energy change:   -0.265120  1 .order   -0.264214   -0.300368   -0.228061
 step:   1.1493(harm=  1.3649)  dis= 0.11713  next Energy=  -170.930836 (dE=-0.564E+00)
 bond charge predicted
       N       E                     dE             d eps       ncg     rms          rms(c)
DAV:   1    -0.171324603177E+03   -0.69270E+00   -0.91339E+01  1088   0.394E+01    0.101E+01
DAV:   2    -0.185090022670E+03   -0.13765E+02   -0.99077E+01  2112   0.930E+01    0.421E+01
DAV:   3    -0.170768399742E+03    0.14322E+02   -0.64296E+01  2056   0.658E+01    0.726E+00
DAV:   4    -0.171284605904E+03   -0.51621E+00   -0.94533E+00  2136   0.207E+01    0.726E+00
DAV:   5    -0.171095195834E+03    0.18941E+00   -0.24032E+00  2112   0.143E+01    0.439E+00
DAV:   6    -0.171024304021E+03    0.70892E-01   -0.84420E-01  2136   0.789E+00    0.306E+00
DAV:   7    -0.170989408367E+03    0.34896E-01   -0.62750E-01  2176   0.639E+00    0.223E+00
DAV:   8    -0.170971652361E+03    0.17756E-01   -0.28211E-01  2144   0.455E+00    0.169E+00
DAV:   9    -0.170968451331E+03    0.32010E-02   -0.64848E-02  2048   0.211E+00    0.146E+00
DAV:  10    -0.170960818571E+03    0.76328E-02   -0.28326E-02  2024   0.124E+00    0.105E+00
DAV:  11    -0.170957934804E+03    0.28838E-02   -0.19580E-02  2176   0.943E-01    0.692E-01
DAV:  12    -0.170955389199E+03    0.25456E-02   -0.13793E-02  2064   0.755E-01    0.278E-01
DAV:  13    -0.170955399532E+03   -0.10333E-04   -0.17043E-03  1808   0.292E-01    0.229E-01
DAV:  14    -0.170955269358E+03    0.13017E-03   -0.60204E-04  1832   0.186E-01    0.176E-01
DAV:  15    -0.170955207048E+03    0.62310E-04   -0.20806E-04  2016   0.103E-01    0.131E-01
DAV:  16    -0.170955117424E+03    0.89624E-04   -0.30249E-04  2176   0.125E-01    0.451E-02
DAV:  17    -0.170955111688E+03    0.57360E-05   -0.30992E-05   944   0.472E-02
  18 F= -.17095511E+03 E0= -.17089417E+03  d E =-.588330E+00
 curvature:  -1.38 expect dE=-0.441E+00 dE for cont linesearch -0.196E-02
 trial: gam= 0.43873 g(F)=  0.268E+00 g(S)=  0.514E-01 ort = 0.524E-01 (trialstep = 0.493E+00)
 search vector abs. value=  0.737E+00
 bond charge predicted
       N       E                     dE             d eps       ncg     rms          rms(c)
DAV:   1    -0.171093377181E+03   -0.13826E+00   -0.13660E+01  1088   0.129E+01    0.942E-01
DAV:   2    -0.171213328561E+03   -0.11995E+00   -0.11505E+00  2088   0.745E+00    0.340E+00
DAV:   3    -0.171122559675E+03    0.90769E-01   -0.57977E-01  2168   0.611E+00    0.932E-01
DAV:   4    -0.171120815259E+03    0.17444E-02   -0.65576E-02  1880   0.236E+00    0.730E-01
DAV:   5    -0.171117415895E+03    0.33994E-02   -0.34900E-02  2056   0.157E+00    0.614E-01
DAV:   6    -0.171116595581E+03    0.82031E-03   -0.35655E-02  2144   0.154E+00    0.560E-01
DAV:   7    -0.171116222835E+03    0.37275E-03   -0.22214E-02  2128   0.130E+00    0.468E-01
DAV:   8    -0.171114366671E+03    0.18562E-02   -0.11365E-02  2144   0.872E-01    0.102E-01
DAV:   9    -0.171114338841E+03    0.27830E-04   -0.10453E-03  1920   0.286E-01    0.641E-02
DAV:  10    -0.171114320541E+03    0.18300E-04   -0.36114E-04  1864   0.146E-01    0.353E-02
DAV:  11    -0.171114311578E+03    0.89633E-05   -0.15141E-04  1664   0.870E-02    0.230E-02
DAV:  12    -0.171114307383E+03    0.41953E-05   -0.15267E-05   688   0.433E-02
  19 F= -.17111431E+03 E0= -.17105676E+03  d E =-.159196E+00
 ZBRENT: can't locate minimum, use default step
 trial-energy change:   -0.159196  1 .order   -0.158739   -0.168743   -0.148735
 step:   1.9709(harm=  4.1556)  dis= 0.17535  next Energy=  -171.470999 (dE=-0.516E+00)
 bond charge predicted
       N       E                     dE             d eps       ncg     rms          rms(c)
DAV:   1    -0.171213142533E+03   -0.98831E-01   -0.12464E+02  1088   0.411E+01    0.296E+00
DAV:   2    -0.172470456473E+03   -0.12573E+01   -0.12106E+01  2072   0.242E+01    0.105E+01
DAV:   3    -0.171509417956E+03    0.96104E+00   -0.56326E+00  2144   0.190E+01    0.292E+00
DAV:   4    -0.171487430993E+03    0.21987E-01   -0.66187E-01  2016   0.725E+00    0.213E+00
DAV:   5    -0.171475379296E+03    0.12052E-01   -0.32921E-01  2064   0.503E+00    0.233E+00
DAV:   6    -0.171445549907E+03    0.29829E-01   -0.32401E-01  2104   0.485E+00    0.132E+00
DAV:   7    -0.171454484528E+03   -0.89346E-02   -0.22908E-01  2120   0.383E+00    0.153E+00
DAV:   8    -0.171431680737E+03    0.22804E-01   -0.15202E-01  2128   0.281E+00    0.300E-01
DAV:   9    -0.171431559410E+03    0.12133E-03   -0.11027E-02  2128   0.818E-01    0.201E-01
DAV:  10    -0.171431431758E+03    0.12765E-03   -0.31904E-03  2136   0.463E-01    0.142E-01
DAV:  11    -0.171431260475E+03    0.17128E-03   -0.17556E-03  2112   0.323E-01    0.662E-02
DAV:  12    -0.171431270430E+03   -0.99553E-05   -0.51309E-04  2160   0.167E-01    0.654E-02
DAV:  13    -0.171431230560E+03    0.39870E-04   -0.32180E-04  2152   0.134E-01    0.206E-02
DAV:  14    -0.171431232686E+03   -0.21255E-05   -0.54590E-05  1184   0.631E-02
  20 F= -.17143123E+03 E0= -.17138132E+03  d E =-.476121E+00
 curvature:  -2.88 expect dE=-0.697E+00 dE for cont linesearch -0.481E-01
 ZBRENT: increasing intervall
 opt :   4.9272  next Energy=  -171.194552 (dE=-0.239E+00)
 bond charge predicted
       N       E                     dE             d eps       ncg     rms          rms(c)
DAV:   1    -0.169930346388E+03    0.15009E+01   -0.52228E+02  1092   0.952E+01    0.730E+00
DAV:   2    -0.178716141552E+03   -0.87858E+01   -0.82874E+01  2152   0.639E+01    0.290E+01
DAV:   3    -0.171384162633E+03    0.73320E+01   -0.43402E+01  2080   0.523E+01    0.745E+00
DAV:   4    -0.171244657983E+03    0.13950E+00   -0.52987E+00  2072   0.188E+01    0.462E+00
DAV:   5    -0.171255901098E+03   -0.11243E-01   -0.17911E+00  2072   0.117E+01    0.502E+00
DAV:   6    -0.171089534915E+03    0.16637E+00   -0.13445E+00  2096   0.964E+00    0.297E+00
DAV:   7    -0.171104033931E+03   -0.14499E-01   -0.10148E+00  2176   0.834E+00    0.333E+00
DAV:   8    -0.171031423937E+03    0.72610E-01   -0.60551E-01  2176   0.618E+00    0.170E+00
DAV:   9    -0.171009116276E+03    0.22308E-01   -0.15162E-01  2176   0.312E+00    0.456E-01
DAV:  10    -0.171009646547E+03   -0.53027E-03   -0.22988E-02  2160   0.125E+00    0.470E-01
DAV:  11    -0.171007930363E+03    0.17162E-02   -0.14979E-02  2160   0.978E-01    0.158E-01
DAV:  12    -0.171008176946E+03   -0.24658E-03   -0.47193E-03  1840   0.502E-01    0.192E-01
DAV:  13    -0.171007754512E+03    0.42243E-03   -0.25984E-03  1752   0.377E-01    0.451E-02
DAV:  14    -0.171007787537E+03   -0.33025E-04   -0.57983E-04  1768   0.168E-01    0.594E-02
DAV:  15    -0.171007757075E+03    0.30462E-04   -0.25392E-04  1776   0.118E-01    0.222E-02
DAV:  16    -0.171007757468E+03   -0.39262E-06   -0.75628E-05  1368   0.633E-02
  21 F= -.17100776E+03 E0= -.17094756E+03  d E =-.526458E-01
 curvature:  14.18 expect dE= 0.141E+02 dE for cont linesearch  0.317E+01
 ZBRENT: bracketing found
 ZBRENT: interpolating
 opt :   2.6051  next Energy=  -171.466400 (dE=-0.511E+00)
 bond charge predicted
       N       E                     dE             d eps       ncg     rms          rms(c)
DAV:   1    -0.170876066172E+03    0.13169E+00   -0.31111E+02  1088   0.677E+01    0.516E+00
DAV:   2    -0.174446933725E+03   -0.35709E+01   -0.35923E+01  1800   0.388E+01    0.172E+01
DAV:   3    -0.171492568309E+03    0.29544E+01   -0.19365E+01  1736   0.334E+01    0.367E+00
DAV:   4    -0.171609076562E+03   -0.11651E+00   -0.28276E+00  1832   0.115E+01    0.320E+00
DAV:   5    -0.171570587849E+03    0.38489E-01   -0.89517E-01  2080   0.828E+00    0.359E+00
DAV:   6    -0.171516713233E+03    0.53875E-01   -0.70810E-01  2088   0.685E+00    0.238E+00
DAV:   7    -0.171534641877E+03   -0.17929E-01   -0.58680E-01  2176   0.646E+00    0.286E+00
DAV:   8    -0.171476993315E+03    0.57649E-01   -0.44801E-01  2176   0.535E+00    0.106E+00
DAV:   9    -0.171472109808E+03    0.48835E-02   -0.74132E-02  2072   0.236E+00    0.656E-01
DAV:  10    -0.171468937478E+03    0.31723E-02   -0.22822E-02  2056   0.126E+00    0.319E-01
DAV:  11    -0.171468284401E+03    0.65308E-03   -0.65041E-03  2112   0.695E-01    0.164E-01
DAV:  12    -0.171468405767E+03   -0.12137E-03   -0.32894E-03  2152   0.474E-01    0.187E-01
DAV:  13    -0.171468110508E+03    0.29526E-03   -0.23532E-03  2160   0.353E-01    0.433E-02
DAV:  14    -0.171468129543E+03   -0.19034E-04   -0.43597E-04  1768   0.152E-01    0.534E-02
DAV:  15    -0.171468096849E+03    0.32694E-04   -0.19239E-04  1760   0.110E-01    0.132E-02
DAV:  16    -0.171468098290E+03   -0.14419E-05   -0.33208E-05   968   0.500E-02
  22 F= -.17146810E+03 E0= -.17141826E+03  d E =-.512987E+00
 curvature:  -0.16 expect dE=-0.483E-01 dE for cont linesearch -0.930E-05
 trial: gam= 0.56399 g(F)=  0.295E+00 g(S)=  0.121E-01 ort = 0.660E-02 (trialstep = 0.915E+00)
 search vector abs. value=  0.549E+00
 bond charge predicted
       N       E                     dE             d eps       ncg     rms          rms(c)
DAV:   1    -0.171651008127E+03   -0.18291E+00   -0.33785E+01  1088   0.208E+01    0.168E+00
DAV:   2    -0.172024458754E+03   -0.37345E+00   -0.33644E+00  2128   0.134E+01    0.619E+00
DAV:   3    -0.171725618481E+03    0.29884E+00   -0.17696E+00  2168   0.109E+01    0.170E+00
DAV:   4    -0.171719676084E+03    0.59424E-02   -0.20549E-01  1992   0.404E+00    0.129E+00
DAV:   5    -0.171719118344E+03    0.55774E-03   -0.13701E-01  2064   0.325E+00    0.154E+00
DAV:   6    -0.171705114596E+03    0.14004E-01   -0.12433E-01  2064   0.320E+00    0.673E-01
DAV:   7    -0.171707951208E+03   -0.28366E-02   -0.67834E-02  2168   0.196E+00    0.817E-01
DAV:   8    -0.171701803251E+03    0.61480E-02   -0.40507E-02  2176   0.158E+00    0.216E-01
DAV:   9    -0.171701625593E+03    0.17766E-03   -0.41411E-03  2096   0.566E-01    0.122E-01
DAV:  10    -0.171701575901E+03    0.49692E-04   -0.13655E-03  2096   0.288E-01    0.804E-02
DAV:  11    -0.171701509435E+03    0.66466E-04   -0.63799E-04  1736   0.184E-01    0.373E-02
DAV:  12    -0.171701514951E+03   -0.55156E-05   -0.16514E-04  1792   0.978E-02    0.335E-02
DAV:  13    -0.171701502704E+03    0.12247E-04   -0.70194E-05  1232   0.653E-02    0.125E-02
DAV:  14    -0.171701503510E+03   -0.80682E-06   -0.19644E-05   664   0.378E-02
  23 F= -.17170150E+03 E0= -.17165594E+03  d E =-.233405E+00
 trial-energy change:   -0.233405  1 .order   -0.231983   -0.284660   -0.179306
 step:   2.2173(harm=  2.4728)  dis= 0.14115  next Energy=  -171.833155 (dE=-0.365E+00)
 bond charge predicted
       N       E                     dE             d eps       ncg     rms          rms(c)
DAV:   1    -0.171729811418E+03   -0.28309E-01   -0.68632E+01  1088   0.301E+01    0.232E+00
DAV:   2    -0.172407540028E+03   -0.67773E+00   -0.63883E+00  1984   0.179E+01    0.788E+00
DAV:   3    -0.171885029958E+03    0.52251E+00   -0.31630E+00  2168   0.142E+01    0.223E+00
DAV:   4    -0.171876071138E+03    0.89588E-02   -0.38474E-01  2056   0.553E+00    0.183E+00
DAV:   5    -0.171870735707E+03    0.53354E-02   -0.26044E-01  2080   0.439E+00    0.204E+00
DAV:   6    -0.171846239512E+03    0.24496E-01   -0.23488E-01  2096   0.431E+00    0.101E+00
DAV:   7    -0.171852673701E+03   -0.64342E-02   -0.14863E-01  2144   0.310E+00    0.122E+00
DAV:   8    -0.171839087935E+03    0.13586E-01   -0.90125E-02  2136   0.220E+00    0.295E-01
DAV:   9    -0.171838818934E+03    0.26900E-03   -0.90231E-03  2152   0.785E-01    0.193E-01
DAV:  10    -0.171838748494E+03    0.70440E-04   -0.32067E-03  2160   0.471E-01    0.149E-01
DAV:  11    -0.171838539194E+03    0.20930E-03   -0.15708E-03  2160   0.311E-01    0.534E-02
DAV:  12    -0.171838551327E+03   -0.12133E-04   -0.35885E-04  1992   0.140E-01    0.528E-02
DAV:  13    -0.171838525947E+03    0.25379E-04   -0.21900E-04  1984   0.107E-01    0.209E-02
DAV:  14    -0.171838527801E+03   -0.18533E-05   -0.47809E-05  1120   0.550E-02
  24 F= -.17183853E+03 E0= -.17178929E+03  d E =-.370430E+00
 curvature:  -2.12 expect dE=-0.435E+00 dE for cont linesearch -0.470E-03
 trial: gam= 0.48062 g(F)=  0.128E+00 g(S)=  0.767E-01 ort = 0.110E-01 (trialstep = 0.118E+01)
 search vector abs. value=  0.342E+00
 bond charge predicted
       N       E                     dE             d eps       ncg     rms          rms(c)
DAV:   1    -0.172273976084E+03   -0.43545E+00   -0.34734E+01  1112   0.288E+01    0.805E+00
DAV:   2    -0.181763005735E+03   -0.94890E+01   -0.65572E+01  2160   0.752E+01    0.364E+01
DAV:   3    -0.171777636466E+03    0.99854E+01   -0.46060E+01  2144   0.587E+01    0.426E+00
DAV:   4    -0.172114359510E+03   -0.33672E+00   -0.54026E+00  1880   0.145E+01    0.410E+00
DAV:   5    -0.172049921528E+03    0.64438E-01   -0.12180E+00  2080   0.864E+00    0.326E+00
DAV:   6    -0.172032603013E+03    0.17319E-01   -0.45763E-01  2160   0.605E+00    0.304E+00
DAV:   7    -0.171982361318E+03    0.50242E-01   -0.29428E-01  2104   0.470E+00    0.940E-01
DAV:   8    -0.171981586900E+03    0.77442E-03   -0.77435E-02  2176   0.210E+00    0.846E-01
DAV:   9    -0.171981994818E+03   -0.40792E-03   -0.27649E-02  2128   0.153E+00    0.875E-01
DAV:  10    -0.171979524798E+03    0.24700E-02   -0.14285E-02  2128   0.106E+00    0.661E-01
DAV:  11    -0.171978526038E+03    0.99876E-03   -0.81855E-03  2120   0.653E-01    0.471E-01
DAV:  12    -0.171977303666E+03    0.12224E-02   -0.59473E-03  2136   0.510E-01    0.207E-01
DAV:  13    -0.171977291533E+03    0.12133E-04   -0.69406E-04  1800   0.184E-01    0.170E-01
DAV:  14    -0.171977222319E+03    0.69214E-04   -0.27375E-04  1824   0.122E-01    0.132E-01
DAV:  15    -0.171977173409E+03    0.48910E-04   -0.12699E-04  1808   0.844E-02    0.873E-02
DAV:  16    -0.171977134296E+03    0.39113E-04   -0.13865E-04  1872   0.786E-02    0.382E-02
DAV:  17    -0.171977127052E+03    0.72438E-05   -0.17570E-05   784   0.398E-02
  25 F= -.17197713E+03 E0= -.17192515E+03  d E =-.138599E+00
 trial-energy change:   -0.138599  1 .order   -0.134857   -0.246914   -0.022799
 step:   1.2834(harm=  1.2952)  dis= 0.04644  next Energy=  -171.978175 (dE=-0.140E+00)
 bond charge predicted
       N       E                     dE             d eps       ncg     rms          rms(c)
DAV:   1    -0.171980783228E+03   -0.36489E-02   -0.30313E-01  1140   0.282E+00    0.722E-01
DAV:   2    -0.172073551949E+03   -0.92769E-01   -0.59883E-01  2176   0.693E+00    0.394E+00
DAV:   3    -0.171978058759E+03    0.95493E-01   -0.45963E-01  2176   0.597E+00    0.424E-01
DAV:   4    -0.171979105862E+03   -0.10471E-02   -0.30026E-02  1656   0.145E+00    0.352E-01
DAV:   5    -0.171979281642E+03   -0.17578E-03   -0.10545E-02  1680   0.101E+00    0.277E-01
DAV:   6    -0.171978662453E+03    0.61919E-03   -0.45314E-03  1784   0.601E-01    0.150E-01
DAV:   7    -0.171978645384E+03    0.17069E-04   -0.13396E-03  1936   0.351E-01    0.137E-01
DAV:   8    -0.171978511274E+03    0.13411E-03   -0.68050E-04  2040   0.248E-01    0.418E-02
DAV:   9    -0.171978505502E+03    0.57728E-05   -0.22269E-04  1872   0.109E-01    0.295E-02
DAV:  10    -0.171978502871E+03    0.26302E-05   -0.95500E-05  1472   0.777E-02
  26 F= -.17197850E+03 E0= -.17192626E+03  d E =-.139975E+00
 curvature:  -1.04 expect dE=-0.294E+00 dE for cont linesearch -0.348E-04
 trial: gam= 1.33376 g(F)=  0.942E-01 g(S)=  0.188E+00 ort = 0.338E-02 (trialstep = 0.455E+00)
 search vector abs. value=  0.900E+00
 bond charge predicted
       N       E                     dE             d eps       ncg     rms          rms(c)
DAV:   1    -0.172085316356E+03   -0.10681E+00   -0.12792E+01  1088   0.135E+01    0.176E+00
DAV:   2    -0.172540660489E+03   -0.45534E+00   -0.35898E+00  2160   0.163E+01    0.777E+00
DAV:   3    -0.172095095147E+03    0.44557E+00   -0.22498E+00  2160   0.128E+01    0.107E+00
DAV:   4    -0.172102284346E+03   -0.71892E-02   -0.20317E-01  1872   0.339E+00    0.101E+00
DAV:   5    -0.172099745205E+03    0.25391E-02   -0.98619E-02  2016   0.289E+00    0.124E+00
DAV:   6    -0.172092761268E+03    0.69839E-02   -0.75583E-02  2016   0.251E+00    0.635E-01
DAV:   7    -0.172092330521E+03    0.43075E-03   -0.30816E-02  2136   0.148E+00    0.555E-01
DAV:   8    -0.172089816673E+03    0.25138E-02   -0.16050E-02  2128   0.108E+00    0.134E-01
DAV:   9    -0.172089943887E+03   -0.12721E-03   -0.31352E-03  2080   0.510E-01    0.175E-01
DAV:  10    -0.172089706107E+03    0.23778E-03   -0.15443E-03  2080   0.342E-01    0.412E-02
DAV:  11    -0.172089707721E+03   -0.16140E-05   -0.29933E-04  1800   0.121E-01    0.360E-02
DAV:  12    -0.172089701950E+03    0.57709E-05   -0.88668E-05  1400   0.776E-02
  27 F= -.17208970E+03 E0= -.17203528E+03  d E =-.111199E+00
 trial-energy change:   -0.111199  1 .order   -0.111371   -0.130394   -0.092348
 step:   1.5608(harm=  1.5608)  dis= 0.08647  next Energy=  -172.201952 (dE=-0.223E+00)
 bond charge predicted
       N       E                     dE             d eps       ncg     rms          rms(c)
DAV:   1    -0.172165958505E+03   -0.76251E-01   -0.76553E+01  1088   0.342E+01    0.429E+00
DAV:   2    -0.174838585800E+03   -0.26726E+01   -0.21560E+01  2136   0.398E+01    0.186E+01
DAV:   3    -0.172238286731E+03    0.26003E+01   -0.12699E+01  2152   0.293E+01    0.299E+00
DAV:   4    -0.172292464799E+03   -0.54178E-01   -0.14030E+00  2120   0.910E+00    0.331E+00
DAV:   5    -0.172278330726E+03    0.14134E-01   -0.68658E-01  2080   0.757E+00    0.326E+00
DAV:   6    -0.172208902343E+03    0.69428E-01   -0.59005E-01  2088   0.620E+00    0.114E+00
DAV:   7    -0.172212730453E+03   -0.38281E-02   -0.18671E-01  2160   0.306E+00    0.119E+00
DAV:   8    -0.172197285213E+03    0.15445E-01   -0.10632E-01  2136   0.233E+00    0.313E-01
DAV:   9    -0.172198269246E+03   -0.98403E-03   -0.20382E-02  2176   0.118E+00    0.439E-01
DAV:  10    -0.172196887645E+03    0.13816E-02   -0.10427E-02  2168   0.917E-01    0.178E-01
DAV:  11    -0.172196667797E+03    0.21985E-03   -0.21842E-03  2080   0.406E-01    0.800E-02
DAV:  12    -0.172196690082E+03   -0.22285E-04   -0.75817E-04  1952   0.199E-01    0.750E-02
DAV:  13    -0.172196642689E+03    0.47393E-04   -0.41837E-04  1760   0.146E-01    0.345E-02
DAV:  14    -0.172196648075E+03   -0.53862E-05   -0.12365E-04  1640   0.828E-02    0.321E-02
DAV:  15    -0.172196635268E+03    0.12808E-04   -0.39347E-05   952   0.625E-02    0.970E-03
DAV:  16    -0.172196638425E+03   -0.31570E-05   -0.41037E-05   984   0.297E-02
  28 F= -.17219664E+03 E0= -.17213908E+03  d E =-.218136E+00
 curvature:  -2.45 expect dE=-0.478E+00 dE for cont linesearch -0.385E-03
 trial: gam= 0.52090 g(F)=  0.192E+00 g(S)=  0.335E-02 ort =-0.119E-01 (trialstep = 0.676E+00)
 search vector abs. value=  0.427E+00
 bond charge predicted
       N       E                     dE             d eps       ncg     rms          rms(c)
DAV:   1    -0.172311597583E+03   -0.11496E+00   -0.11760E+01  1088   0.124E+01    0.144E+00
DAV:   2    -0.172555814941E+03   -0.24422E+00   -0.20627E+00  2176   0.117E+01    0.573E+00
DAV:   3    -0.172326413006E+03    0.22940E+00   -0.12358E+00  2176   0.934E+00    0.116E+00
DAV:   4    -0.172332065087E+03   -0.56521E-02   -0.16839E-01  2056   0.346E+00    0.139E+00
DAV:   5    -0.172328361205E+03    0.37039E-02   -0.12293E-01  2104   0.319E+00    0.126E+00
DAV:   6    -0.172316502454E+03    0.11859E-01   -0.98707E-02  2128   0.248E+00    0.388E-01
DAV:   7    -0.172317374193E+03   -0.87174E-03   -0.27453E-02  2176   0.125E+00    0.479E-01
DAV:   8    -0.172315210887E+03    0.21633E-02   -0.13254E-02  2176   0.947E-01    0.131E-01
DAV:   9    -0.172315181753E+03    0.29134E-04   -0.20057E-03  2064   0.397E-01    0.105E-01
DAV:  10    -0.172315121020E+03    0.60733E-04   -0.87890E-04  2048   0.256E-01    0.634E-02
DAV:  11    -0.172315085531E+03    0.35489E-04   -0.36435E-04  1720   0.138E-01    0.307E-02
DAV:  12    -0.172315086825E+03   -0.12945E-05   -0.87277E-05  1408   0.760E-02
  29 F= -.17231509E+03 E0= -.17225764E+03  d E =-.118448E+00
 ZBRENT: can't locate minimum, use default step
 trial-energy change:   -0.118448  1 .order   -0.117988   -0.127762   -0.108214
 step:   2.7059(harm=  4.4212)  dis= 0.10873  next Energy=  -172.517869 (dE=-0.321E+00)
 bond charge predicted
       N       E                     dE             d eps       ncg     rms          rms(c)
DAV:   1    -0.172480234047E+03   -0.16515E+00   -0.10776E+02  1088   0.396E+01    0.448E+00
DAV:   2    -0.175037525963E+03   -0.25573E+01   -0.20769E+01  2152   0.371E+01    0.189E+01
DAV:   3    -0.172652491960E+03    0.23850E+01   -0.11680E+01  2152   0.270E+01    0.437E+00
DAV:   4    -0.172661586594E+03   -0.90946E-02   -0.19875E+00  2112   0.113E+01    0.380E+00
DAV:   5    -0.172631117677E+03    0.30469E-01   -0.99294E-01  2136   0.880E+00    0.324E+00
DAV:   6    -0.172535304916E+03    0.95813E-01   -0.86377E-01  2160   0.708E+00    0.110E+00
DAV:   7    -0.172539731481E+03   -0.44266E-02   -0.19879E-01  1904   0.321E+00    0.122E+00
DAV:   8    -0.172522792364E+03    0.16939E-01   -0.10646E-01  1920   0.243E+00    0.291E-01
DAV:   9    -0.172523535982E+03   -0.74362E-03   -0.21080E-02  2104   0.108E+00    0.355E-01
DAV:  10    -0.172522454311E+03    0.10817E-02   -0.81443E-03  2144   0.769E-01    0.135E-01
DAV:  11    -0.172522380960E+03    0.73351E-04   -0.18411E-03  2120   0.361E-01    0.979E-02
DAV:  12    -0.172522310485E+03    0.70474E-04   -0.67389E-04  2152   0.194E-01    0.358E-02
DAV:  13    -0.172522314999E+03   -0.45132E-05   -0.18398E-04  1696   0.913E-02    0.365E-02
DAV:  14    -0.172522300948E+03    0.14050E-04   -0.69276E-05  1248   0.690E-02    0.934E-03
DAV:  15    -0.172522301248E+03   -0.29936E-06   -0.14012E-05   712   0.292E-02
  30 F= -.17252230E+03 E0= -.17246676E+03  d E =-.325663E+00
 curvature:  -3.95 expect dE=-0.117E+01 dE for cont linesearch -0.940E-02
 trial: gam= 1.04771 g(F)=  0.129E+00 g(S)=  0.167E+00 ort = 0.319E-01 (trialstep = 0.555E+00)
 search vector abs. value=  0.832E+00
 bond charge predicted
       N       E                     dE             d eps       ncg     rms          rms(c)
DAV:   1    -0.172797345663E+03   -0.27504E+00   -0.16614E+01  1120   0.203E+01    0.550E+00
DAV:   2    -0.177515705271E+03   -0.47184E+01   -0.31883E+01  2176   0.519E+01    0.265E+01
DAV:   3    -0.172565111302E+03    0.49506E+01   -0.24854E+01  2176   0.436E+01    0.300E+00
DAV:   4    -0.172721274000E+03   -0.15616E+00   -0.23907E+00  2064   0.110E+01    0.315E+00
DAV:   5    -0.172684068851E+03    0.37205E-01   -0.39710E-01  1904   0.630E+00    0.215E+00
DAV:   6    -0.172667205842E+03    0.16863E-01   -0.19860E-01  2048   0.333E+00    0.144E+00
DAV:   7    -0.172654448338E+03    0.12758E-01   -0.10334E-01  2176   0.242E+00    0.566E-01
DAV:   8    -0.172653047071E+03    0.14013E-02   -0.41890E-02  1960   0.134E+00    0.448E-01
DAV:   9    -0.172652321498E+03    0.72557E-03   -0.58180E-03  2048   0.624E-01    0.321E-01
DAV:  10    -0.172651956675E+03    0.36482E-03   -0.37068E-03  2096   0.501E-01    0.236E-01
DAV:  11    -0.172651920071E+03    0.36604E-04   -0.26871E-03  2160   0.454E-01    0.208E-01
DAV:  12    -0.172651625970E+03    0.29410E-03   -0.16632E-03  2144   0.334E-01    0.674E-02
DAV:  13    -0.172651635036E+03   -0.90661E-05   -0.25846E-04  1784   0.122E-01    0.594E-02
DAV:  14    -0.172651623507E+03    0.11529E-04   -0.71111E-05  1296   0.714E-02    0.472E-02
DAV:  15    -0.172651617034E+03    0.64734E-05   -0.15384E-05   664   0.364E-02
  31 F= -.17265162E+03 E0= -.17259664E+03  d E =-.129316E+00
 trial-energy change:   -0.129316  1 .order   -0.125948   -0.183287   -0.068610
 step:   0.8189(harm=  0.8874)  dis= 0.04069  next Energy=  -172.668268 (dE=-0.146E+00)
 bond charge predicted
       N       E                     dE             d eps       ncg     rms          rms(c)
DAV:   1    -0.172703618650E+03   -0.51995E-01   -0.38022E+00  1112   0.995E+00    0.260E+00
DAV:   2    -0.173824163745E+03   -0.11205E+01   -0.74092E+00  2176   0.250E+01    0.133E+01
DAV:   3    -0.172662052751E+03    0.11621E+01   -0.58407E+00  2176   0.216E+01    0.158E+00
DAV:   4    -0.172682199406E+03   -0.20147E-01   -0.44264E-01  1904   0.513E+00    0.120E+00
DAV:   5    -0.172678736847E+03    0.34626E-02   -0.81606E-02  1792   0.276E+00    0.804E-01
DAV:   6    -0.172674893708E+03    0.38431E-02   -0.43944E-02  1768   0.154E+00    0.546E-01
DAV:   7    -0.172673605620E+03    0.12881E-02   -0.16515E-02  2176   0.957E-01    0.314E-01
DAV:   8    -0.172672804018E+03    0.80160E-03   -0.89315E-03  2144   0.639E-01    0.124E-01
DAV:   9    -0.172672854910E+03   -0.50892E-04   -0.19537E-03  2152   0.357E-01    0.138E-01
DAV:  10    -0.172672679779E+03    0.17513E-03   -0.11723E-03  2144   0.284E-01    0.406E-02
DAV:  11    -0.172672693306E+03   -0.13527E-04   -0.28948E-04  2032   0.149E-01    0.550E-02
DAV:  12    -0.172672670356E+03    0.22950E-04   -0.15509E-04  1960   0.108E-01    0.180E-02
DAV:  13    -0.172672666922E+03    0.34335E-05   -0.18402E-05   760   0.443E-02
  32 F= -.17267267E+03 E0= -.17261765E+03  d E =-.150366E+00
 curvature:  -1.07 expect dE=-0.183E+00 dE for cont linesearch -0.104E-02
 trial: gam= 0.52827 g(F)=  0.105E+00 g(S)=  0.660E-01 ort = 0.284E-01 (trialstep = 0.608E+00)
 search vector abs. value=  0.434E+00
 bond charge predicted
       N       E                     dE             d eps       ncg     rms          rms(c)
DAV:   1    -0.172762875890E+03   -0.90206E-01   -0.96555E+00  1088   0.111E+01    0.136E+00
DAV:   2    -0.173102697965E+03   -0.33982E+00   -0.24361E+00  2144   0.126E+01    0.696E+00
DAV:   3    -0.172781623982E+03    0.32107E+00   -0.15386E+00  2096   0.102E+01    0.157E+00
DAV:   4    -0.172772539735E+03    0.90842E-02   -0.17708E-01  2144   0.343E+00    0.651E-01
DAV:   5    -0.172771377682E+03    0.11621E-02   -0.52421E-02  2152   0.186E+00    0.712E-01
DAV:   6    -0.172767684628E+03    0.36931E-02   -0.49372E-02  2144   0.179E+00    0.400E-01
DAV:   7    -0.172768077424E+03   -0.39280E-03   -0.19019E-02  2096   0.126E+00    0.442E-01
DAV:   8    -0.172766216671E+03    0.18608E-02   -0.11425E-02  2096   0.862E-01    0.757E-02
DAV:   9    -0.172766367329E+03   -0.15066E-03   -0.20565E-03  2112   0.339E-01    0.134E-01
DAV:  10    -0.172766217826E+03    0.14950E-03   -0.10296E-03  2176   0.265E-01    0.438E-02
DAV:  11    -0.172766203335E+03    0.14491E-04   -0.16226E-04  1800   0.104E-01    0.223E-02
DAV:  12    -0.172766200929E+03    0.24061E-05   -0.22550E-05   848   0.530E-02
  33 F= -.17276620E+03 E0= -.17270991E+03  d E =-.935340E-01
 trial-energy change:   -0.093534  1 .order   -0.093634   -0.113288   -0.073981
 step:   1.7521(harm=  1.7521)  dis= 0.07475  next Energy=  -172.835922 (dE=-0.163E+00)
 bond charge predicted
       N       E                     dE             d eps       ncg     rms          rms(c)
DAV:   1    -0.172827289594E+03   -0.61086E-01   -0.34474E+01  1088   0.214E+01    0.262E+00
DAV:   2    -0.174084053227E+03   -0.12568E+01   -0.91692E+00  2152   0.243E+01    0.132E+01
DAV:   3    -0.172882685512E+03    0.12014E+01   -0.55868E+00  2104   0.187E+01    0.287E+00
DAV:   4    -0.172863098799E+03    0.19587E-01   -0.73013E-01  2152   0.648E+00    0.133E+00
DAV:   5    -0.172862318876E+03    0.77992E-03   -0.23818E-01  2152   0.379E+00    0.148E+00
DAV:   6    -0.172841980888E+03    0.20338E-01   -0.19716E-01  2160   0.326E+00    0.613E-01
DAV:   7    -0.172846387252E+03   -0.44064E-02   -0.71759E-02  2160   0.230E+00    0.961E-01
DAV:   8    -0.172838130677E+03    0.82566E-02   -0.48260E-02  2160   0.181E+00    0.164E-01
DAV:   9    -0.172838565456E+03   -0.43478E-03   -0.78545E-03  2104   0.689E-01    0.237E-01
DAV:  10    -0.172838127924E+03    0.43753E-03   -0.35248E-03  2144   0.497E-01    0.106E-01
DAV:  11    -0.172838040435E+03    0.87489E-04   -0.73721E-04  2160   0.231E-01    0.431E-02
DAV:  12    -0.172838048247E+03   -0.78118E-05   -0.22703E-04  2072   0.120E-01    0.478E-02
DAV:  13    -0.172838030169E+03    0.18078E-04   -0.15836E-04  1904   0.944E-02    0.178E-02
DAV:  14    -0.172838031921E+03   -0.17521E-05   -0.27821E-05   856   0.533E-02
  34 F= -.17283803E+03 E0= -.17277941E+03  d E =-.165365E+00
 curvature:  -2.04 expect dE=-0.154E+00 dE for cont linesearch -0.101E-03
 trial: gam= 0.36660 g(F)=  0.699E-01 g(S)=  0.552E-02 ort = 0.463E-02 (trialstep = 0.837E+00)
 search vector abs. value=  0.137E+00
 bond charge predicted
       N       E                     dE             d eps       ncg     rms          rms(c)
DAV:   1    -0.172895155824E+03   -0.57126E-01   -0.58017E+00  1088   0.830E+00    0.107E+00
DAV:   2    -0.173091015727E+03   -0.19586E+00   -0.15878E+00  2168   0.999E+00    0.487E+00
DAV:   3    -0.172900489929E+03    0.19053E+00   -0.10633E+00  2176   0.854E+00    0.979E-01
DAV:   4    -0.172898046323E+03    0.24436E-02   -0.73666E-02  1856   0.247E+00    0.563E-01
DAV:   5    -0.172900214684E+03   -0.21684E-02   -0.41467E-02  2088   0.187E+00    0.876E-01
DAV:   6    -0.172894980549E+03    0.52341E-02   -0.36390E-02  2096   0.173E+00    0.308E-01
DAV:   7    -0.172895547885E+03   -0.56734E-03   -0.17554E-02  2152   0.105E+00    0.380E-01
DAV:   8    -0.172894413754E+03    0.11341E-02   -0.74959E-03  2144   0.778E-01    0.153E-01
DAV:   9    -0.172894256585E+03    0.15717E-03   -0.15340E-03  2096   0.328E-01    0.660E-02
DAV:  10    -0.172894268399E+03   -0.11814E-04   -0.58453E-04  1984   0.179E-01    0.681E-02
DAV:  11    -0.172894227175E+03    0.41224E-04   -0.31405E-04  1688   0.131E-01    0.284E-02
DAV:  12    -0.172894224501E+03    0.26744E-05   -0.44568E-05  1088   0.574E-02
  35 F= -.17289422E+03 E0= -.17283592E+03  d E =-.561926E-01
 trial-energy change:   -0.056193  1 .order   -0.056160   -0.064559   -0.047761
 step:   3.2159(harm=  3.2159)  dis= 0.06496  next Energy=  -172.962091 (dE=-0.124E+00)
 bond charge predicted
       N       E                     dE             d eps       ncg     rms          rms(c)
DAV:   1    -0.172963242410E+03   -0.69015E-01   -0.46882E+01  1088   0.235E+01    0.303E+00
DAV:   2    -0.174395670665E+03   -0.14324E+01   -0.11931E+01  2168   0.274E+01    0.128E+01
DAV:   3    -0.172989157550E+03    0.14065E+01   -0.80004E+00  2176   0.234E+01    0.245E+00
DAV:   4    -0.172987538123E+03    0.16194E-02   -0.57372E-01  1848   0.680E+00    0.170E+00
DAV:   5    -0.173003675912E+03   -0.16138E-01   -0.34576E-01  2032   0.549E+00    0.259E+00
DAV:   6    -0.172958621194E+03    0.45055E-01   -0.28542E-01  2032   0.493E+00    0.786E-01
DAV:   7    -0.172965919727E+03   -0.72985E-02   -0.13207E-01  2144   0.290E+00    0.114E+00
DAV:   8    -0.172954888488E+03    0.11031E-01   -0.66521E-02  2128   0.225E+00    0.331E-01
DAV:   9    -0.172954355744E+03    0.53274E-03   -0.86905E-03  2064   0.781E-01    0.186E-01
DAV:  10    -0.172954221946E+03    0.13380E-03   -0.29469E-03  2008   0.422E-01    0.123E-01
DAV:  11    -0.172954186860E+03    0.35086E-04   -0.19510E-03  1744   0.312E-01    0.977E-02
DAV:  12    -0.172954113575E+03    0.73286E-04   -0.52437E-04  2112   0.184E-01    0.330E-02
DAV:  13    -0.172954106110E+03    0.74647E-05   -0.87513E-05  1472   0.689E-02
  36 F= -.17295411E+03 E0= -.17289929E+03  d E =-.116074E+00
 curvature:  -2.86 expect dE=-0.178E+00 dE for cont linesearch -0.173E-02
 trial: gam= 0.86324 g(F)=  0.498E-01 g(S)=  0.125E-01 ort =-0.910E-02 (trialstep = 0.121E+01)
 search vector abs. value=  0.149E+00
 bond charge predicted
       N       E                     dE             d eps       ncg     rms          rms(c)
DAV:   1    -0.173003729924E+03   -0.49616E-01   -0.15288E+01  1088   0.162E+01    0.270E+00
DAV:   2    -0.174249861375E+03   -0.12461E+01   -0.87230E+00  2176   0.254E+01    0.139E+01
DAV:   3    -0.172996272558E+03    0.12536E+01   -0.57204E+00  2168   0.194E+01    0.180E+00
DAV:   4    -0.173015272492E+03   -0.19000E-01   -0.50683E-01  2048   0.538E+00    0.167E+00
DAV:   5    -0.173008302506E+03    0.69700E-02   -0.16098E-01  2040   0.382E+00    0.123E+00
DAV:   6    -0.172996582824E+03    0.11720E-01   -0.12432E-01  2048   0.282E+00    0.629E-01
DAV:   7    -0.172999035084E+03   -0.24523E-02   -0.52167E-02  2096   0.200E+00    0.891E-01
DAV:   8    -0.172993105737E+03    0.59293E-02   -0.32792E-02  2096   0.162E+00    0.176E-01
DAV:   9    -0.172993167565E+03   -0.61828E-04   -0.66436E-03  1824   0.601E-01    0.165E-01
DAV:  10    -0.172992895807E+03    0.27176E-03   -0.20824E-03  1768   0.354E-01    0.668E-02
DAV:  11    -0.172992862330E+03    0.33477E-04   -0.46832E-04  1808   0.155E-01    0.352E-02
DAV:  12    -0.172992863543E+03   -0.12129E-05   -0.11169E-04  1608   0.811E-02    0.281E-02
DAV:  13    -0.172992856504E+03    0.70388E-05   -0.53034E-05  1200   0.609E-02
  37 F= -.17299286E+03 E0= -.17293919E+03  d E =-.387504E-01
 trial-energy change:   -0.038750  1 .order   -0.038343   -0.065842   -0.010843
 step:   1.4367(harm=  1.4487)  dis= 0.03394  next Energy=  -172.993875 (dE=-0.398E-01)
 bond charge predicted
       N       E                     dE             d eps       ncg     rms          rms(c)
DAV:   1    -0.172994444471E+03   -0.15809E-02   -0.52836E-01  1088   0.291E+00    0.503E-01
DAV:   2    -0.173037542097E+03   -0.43098E-01   -0.29722E-01  2160   0.470E+00    0.260E+00
DAV:   3    -0.172994150272E+03    0.43392E-01   -0.20797E-01  2160   0.387E+00    0.334E-01
DAV:   4    -0.172994604440E+03   -0.45417E-03   -0.15499E-02  1792   0.100E+00    0.291E-01
DAV:   5    -0.172994521626E+03    0.82814E-04   -0.59023E-03  1792   0.763E-01    0.229E-01
DAV:   6    -0.172994100202E+03    0.42142E-03   -0.40218E-03  1848   0.542E-01    0.128E-01
DAV:   7    -0.172994138986E+03   -0.38784E-04   -0.16863E-03  2048   0.384E-01    0.148E-01
DAV:   8    -0.172993972319E+03    0.16667E-03   -0.97075E-04  2064   0.277E-01    0.328E-02
DAV:   9    -0.172993971967E+03    0.35229E-06   -0.22073E-04  1784   0.104E-01    0.290E-02
DAV:  10    -0.172993963990E+03    0.79772E-05   -0.71173E-05  1280   0.675E-02
  38 F= -.17299396E+03 E0= -.17294052E+03  d E =-.398579E-01
 curvature:  -1.98 expect dE=-0.146E+00 dE for cont linesearch -0.745E-05
 trial: gam= 0.92123 g(F)=  0.341E-01 g(S)=  0.399E-01 ort = 0.749E-03 (trialstep = 0.926E+00)
 search vector abs. value=  0.202E+00
 bond charge predicted
       N       E                     dE             d eps       ncg     rms          rms(c)
DAV:   1    -0.173079027262E+03   -0.85055E-01   -0.12898E+01  1088   0.151E+01    0.354E+00
DAV:   2    -0.175378325482E+03   -0.22993E+01   -0.15163E+01  2160   0.349E+01    0.189E+01
DAV:   3    -0.173007446683E+03    0.23709E+01   -0.11476E+01  2176   0.302E+01    0.207E+00
DAV:   4    -0.173055265186E+03   -0.47819E-01   -0.92820E-01  1928   0.705E+00    0.167E+00
DAV:   5    -0.173051968928E+03    0.32963E-02   -0.19397E-01  1912   0.404E+00    0.130E+00
DAV:   6    -0.173043169129E+03    0.87998E-02   -0.12094E-01  2072   0.275E+00    0.949E-01
DAV:   7    -0.173042293763E+03    0.87537E-03   -0.57249E-02  2112   0.213E+00    0.892E-01
DAV:   8    -0.173037103731E+03    0.51900E-02   -0.40344E-02  2112   0.170E+00    0.294E-01
DAV:   9    -0.173037233710E+03   -0.12998E-03   -0.85147E-03  1928   0.724E-01    0.305E-01
DAV:  10    -0.173036541336E+03    0.69237E-03   -0.36412E-03  2128   0.467E-01    0.897E-02
DAV:  11    -0.173036562118E+03   -0.20782E-04   -0.11680E-03  1768   0.224E-01    0.814E-02
DAV:  12    -0.173036507104E+03    0.55014E-04   -0.43272E-04  2048   0.154E-01    0.291E-02
DAV:  13    -0.173036503096E+03    0.40082E-05   -0.84129E-05  1416   0.691E-02
  39 F= -.17303650E+03 E0= -.17298517E+03  d E =-.425391E-01
 trial-energy change:   -0.042539  1 .order   -0.041781   -0.069215   -0.014347
 step:   1.1455(harm=  1.1680)  dis= 0.02529  next Energy=  -173.038215 (dE=-0.443E-01)
 bond charge predicted
       N       E                     dE             d eps       ncg     rms          rms(c)
DAV:   1    -0.173040391436E+03   -0.38843E-02   -0.73461E-01  1088   0.370E+00    0.831E-01
DAV:   2    -0.173173840285E+03   -0.13345E+00   -0.86608E-01  2176   0.827E+00    0.467E+00
DAV:   3    -0.173038447242E+03    0.13539E+00   -0.64362E-01  2176   0.702E+00    0.615E-01
DAV:   4    -0.173038885194E+03   -0.43795E-03   -0.43249E-02  1776   0.168E+00    0.332E-01
DAV:   5    -0.173039280098E+03   -0.39490E-03   -0.12267E-02  1784   0.993E-01    0.296E-01
DAV:   6    -0.173038548143E+03    0.73196E-03   -0.68649E-03  1952   0.698E-01    0.169E-01
DAV:   7    -0.173038646502E+03   -0.98360E-04   -0.30589E-03  2064   0.505E-01    0.205E-01
DAV:   8    -0.173038345205E+03    0.30130E-03   -0.19201E-03  2064   0.379E-01    0.529E-02
DAV:   9    -0.173038337365E+03    0.78404E-05   -0.41973E-04  1920   0.158E-01    0.416E-02
DAV:  10    -0.173038324553E+03    0.12812E-04   -0.12372E-04  1584   0.858E-02    0.199E-02
DAV:  11    -0.173038318542E+03    0.60111E-05   -0.20032E-05   760   0.446E-02
  40 F= -.17303832E+03 E0= -.17298740E+03  d E =-.443546E-01
 curvature:  -1.56 expect dE=-0.580E-01 dE for cont linesearch -0.173E-05
 trial: gam= 0.54374 g(F)=  0.216E-01 g(S)=  0.155E-01 ort = 0.473E-03 (trialstep = 0.970E+00)
 search vector abs. value=  0.973E-01
 bond charge predicted
       N       E                     dE             d eps       ncg     rms          rms(c)
DAV:   1    -0.173061698422E+03   -0.23374E-01   -0.69318E+00  1088   0.102E+01    0.139E+00
DAV:   2    -0.173398262656E+03   -0.33656E+00   -0.23718E+00  2160   0.127E+01    0.722E+00
DAV:   3    -0.173069071831E+03    0.32919E+00   -0.15332E+00  2152   0.102E+01    0.120E+00
DAV:   4    -0.173068731142E+03    0.34069E-03   -0.14643E-01  1992   0.305E+00    0.823E-01
DAV:   5    -0.173069228682E+03   -0.49754E-03   -0.59074E-02  2000   0.225E+00    0.793E-01
DAV:   6    -0.173063884264E+03    0.53444E-02   -0.48025E-02  2016   0.177E+00    0.361E-01
DAV:   7    -0.173064556589E+03   -0.67233E-03   -0.20154E-02  2112   0.120E+00    0.472E-01
DAV:   8    -0.173062935973E+03    0.16206E-02   -0.10427E-02  2112   0.934E-01    0.154E-01
DAV:   9    -0.173062757372E+03    0.17860E-03   -0.23037E-03  2136   0.376E-01    0.667E-02
DAV:  10    -0.173062751092E+03    0.62803E-05   -0.59558E-04  1856   0.184E-01    0.588E-02
DAV:  11    -0.173062712549E+03    0.38542E-04   -0.24945E-04  1736   0.115E-01    0.146E-02
DAV:  12    -0.173062715207E+03   -0.26581E-05   -0.38699E-05  1088   0.485E-02
  41 F= -.17306272E+03 E0= -.17301209E+03  d E =-.243967E-01
 trial-energy change:   -0.024397  1 .order   -0.024461   -0.036296   -0.012626
 step:   1.5004(harm=  1.4871)  dis= 0.02596  next Energy=  -173.066159 (dE=-0.278E-01)
 bond charge predicted
       N       E                     dE             d eps       ncg     rms          rms(c)
DAV:   1    -0.173065819452E+03   -0.31069E-02   -0.20663E+00  1088   0.551E+00    0.757E-01
DAV:   2    -0.173166009699E+03   -0.10019E+00   -0.69722E-01  2160   0.687E+00    0.397E+00
DAV:   3    -0.173067970050E+03    0.98040E-01   -0.46318E-01  2152   0.570E+00    0.648E-01
DAV:   4    -0.173067745431E+03    0.22462E-03   -0.41788E-02  1912   0.166E+00    0.447E-01
DAV:   5    -0.173067933607E+03   -0.18818E-03   -0.17831E-02  1936   0.126E+00    0.425E-01
DAV:   6    -0.173066350778E+03    0.15828E-02   -0.13712E-02  2000   0.952E-01    0.195E-01
DAV:   7    -0.173066522899E+03   -0.17212E-03   -0.57655E-03  2128   0.643E-01    0.249E-01
DAV:   8    -0.173066080532E+03    0.44237E-03   -0.28979E-03  2128   0.490E-01    0.846E-02
DAV:   9    -0.173066027554E+03    0.52978E-04   -0.67530E-04  2144   0.203E-01    0.380E-02
DAV:  10    -0.173066024790E+03    0.27644E-05   -0.18829E-04  1792   0.103E-01    0.331E-02
DAV:  11    -0.173066011843E+03    0.12947E-04   -0.67767E-05  1256   0.638E-02    0.940E-03
DAV:  12    -0.173066012656E+03   -0.81320E-06   -0.13913E-05   640   0.276E-02
  42 F= -.17306601E+03 E0= -.17301537E+03  d E =-.276941E-01
 curvature:  -1.93 expect dE=-0.501E-01 dE for cont linesearch -0.403E-05
 trial: gam= 0.64622 g(F)=  0.169E-01 g(S)=  0.907E-02 ort =-0.450E-03 (trialstep = 0.108E+01)
 search vector abs. value=  0.660E-01
 bond charge predicted
       N       E                     dE             d eps       ncg     rms          rms(c)
DAV:   1    -0.173095334304E+03   -0.29322E-01   -0.54246E+00  1088   0.944E+00    0.199E+00
DAV:   2    -0.173837758972E+03   -0.74242E+00   -0.50520E+00  2160   0.199E+01    0.108E+01
DAV:   3    -0.173078166880E+03    0.75959E+00   -0.37241E+00  2168   0.171E+01    0.119E+00
DAV:   4    -0.173090856778E+03   -0.12690E-01   -0.27460E-01  1880   0.382E+00    0.973E-01
DAV:   5    -0.173090081922E+03    0.77486E-03   -0.66080E-02  1872   0.236E+00    0.792E-01
DAV:   6    -0.173085921492E+03    0.41604E-02   -0.44996E-02  1960   0.174E+00    0.484E-01
DAV:   7    -0.173086230329E+03   -0.30884E-03   -0.20820E-02  2032   0.131E+00    0.542E-01
DAV:   8    -0.173084273626E+03    0.19567E-02   -0.13633E-02  2072   0.102E+00    0.166E-01
DAV:   9    -0.173084176763E+03    0.96863E-04   -0.34041E-03  2040   0.437E-01    0.142E-01
DAV:  10    -0.173084072074E+03    0.10469E-03   -0.12169E-03  2152   0.259E-01    0.688E-02
DAV:  11    -0.173084023121E+03    0.48952E-04   -0.44326E-04  1752   0.145E-01    0.165E-02
DAV:  12    -0.173084023234E+03   -0.11243E-06   -0.33055E-05   952   0.529E-02
  43 F= -.17308402E+03 E0= -.17303352E+03  d E =-.180106E-01
 trial-energy change:   -0.018011  1 .order   -0.017839   -0.027599   -0.008079
 step:   1.4909(harm=  1.5212)  dis= 0.02177  next Energy=  -173.085591 (dE=-0.196E-01)
 bond charge predicted
       N       E                     dE             d eps       ncg     rms          rms(c)
DAV:   1    -0.173087182732E+03   -0.31596E-02   -0.81197E-01  1088   0.370E+00    0.768E-01
DAV:   2    -0.173199243398E+03   -0.11206E+00   -0.75684E-01  2160   0.770E+00    0.420E+00
DAV:   3    -0.173084993833E+03    0.11425E+00   -0.55118E-01  2160   0.650E+00    0.440E-01
DAV:   4    -0.173086585193E+03   -0.15914E-02   -0.36400E-02  1800   0.143E+00    0.371E-01
DAV:   5    -0.173086566949E+03    0.18244E-04   -0.10236E-02  1840   0.972E-01    0.316E-01
DAV:   6    -0.173085905153E+03    0.66180E-03   -0.66773E-03  1880   0.691E-01    0.181E-01
DAV:   7    -0.173085983690E+03   -0.78537E-04   -0.32204E-03  2048   0.521E-01    0.214E-01
DAV:   8    -0.173085671236E+03    0.31245E-03   -0.19725E-03  2048   0.392E-01    0.586E-02
DAV:   9    -0.173085657950E+03    0.13286E-04   -0.49189E-04  1952   0.165E-01    0.467E-02
DAV:  10    -0.173085646783E+03    0.11167E-04   -0.17078E-04  1744   0.971E-02    0.269E-02
DAV:  11    -0.173085636900E+03    0.98824E-05   -0.47655E-05  1056   0.572E-02
  44 F= -.17308564E+03 E0= -.17303517E+03  d E =-.196242E-01
 curvature:  -1.95 expect dE=-0.401E-01 dE for cont linesearch -0.231E-05
 trial: gam= 0.72304 g(F)=  0.107E-01 g(S)=  0.988E-02 ort = 0.279E-03 (trialstep = 0.116E+01)
 search vector abs. value=  0.555E-01
 bond charge predicted
       N       E                     dE             d eps       ncg     rms          rms(c)
[...]
DAV:   2    -0.180645542393E+03   -0.17089E+01   -0.96823E+00  2120   0.285E+01    0.160E+01
DAV:   3    -0.178905192026E+03    0.17404E+01   -0.65572E+00  2120   0.243E+01    0.141E+00
DAV:   4    -0.178932474792E+03   -0.27283E-01   -0.53442E-01  1760   0.494E+00    0.112E+00
DAV:   5    -0.178926656138E+03    0.58187E-02   -0.13234E-01  2080   0.312E+00    0.109E+00
DAV:   6    -0.178924550066E+03    0.21061E-02   -0.82074E-02  2112   0.276E+00    0.105E+00
DAV:   7    -0.178919222985E+03    0.53271E-02   -0.43070E-02  2064   0.209E+00    0.543E-01
DAV:   8    -0.178916875084E+03    0.23479E-02   -0.21000E-02  2128   0.114E+00    0.244E-01
DAV:   9    -0.178916651986E+03    0.22310E-03   -0.35165E-03  2088   0.480E-01    0.135E-01
DAV:  10    -0.178916479415E+03    0.17257E-03   -0.18736E-03  2032   0.315E-01    0.578E-02
DAV:  11    -0.178916553664E+03   -0.74249E-04   -0.60967E-04  2064   0.247E-01    0.115E-01
DAV:  12    -0.178916461721E+03    0.91943E-04   -0.34668E-04  2032   0.193E-01    0.234E-02
DAV:  13    -0.178916460733E+03    0.98766E-06   -0.55609E-05  1280   0.582E-02
 258 F= -.17891646E+03 E0= -.17886293E+03  d E =-.145486E+00
 curvature:  -1.10 expect dE=-0.537E-01 dE for cont linesearch -0.311E-05
 trial: gam= 0.23366 g(F)=  0.342E-01 g(S)=  0.146E-01 ort =-0.894E-03 (trialstep = 0.671E+00)
 search vector abs. value=  0.638E-01
 bond charge predicted
       N       E                     dE             d eps       ncg     rms          rms(c)
DAV:   1    -0.178949918578E+03   -0.33457E-01   -0.19003E+00  1096   0.628E+00    0.151E+00
DAV:   2    -0.179355692224E+03   -0.40577E+00   -0.21971E+00  2128   0.137E+01    0.796E+00
DAV:   3    -0.178937285119E+03    0.41841E+00   -0.15431E+00  2112   0.112E+01    0.581E-01
DAV:   4    -0.178943771734E+03   -0.64866E-02   -0.10644E-01  1712   0.223E+00    0.548E-01
DAV:   5    -0.178941309656E+03    0.24621E-02   -0.27309E-02  2064   0.150E+00    0.425E-01
DAV:   6    -0.178940782782E+03    0.52687E-03   -0.93739E-03  2000   0.988E-01    0.342E-01
DAV:   7    -0.178940224444E+03    0.55834E-03   -0.49210E-03  2024   0.640E-01    0.177E-01
DAV:   8    -0.178939900270E+03    0.32417E-03   -0.25099E-03  2000   0.375E-01    0.665E-02
DAV:   9    -0.178939912342E+03   -0.12072E-04   -0.58993E-04  1800   0.180E-01    0.655E-02
DAV:  10    -0.178939868073E+03    0.44269E-04   -0.30329E-04  1832   0.126E-01    0.214E-02
DAV:  11    -0.178939870641E+03   -0.25681E-05   -0.37966E-05  1048   0.697E-02
 259 F= -.17893987E+03 E0= -.17888592E+03  d E =-.234099E-01
 trial-energy change:   -0.023410  1 .order   -0.023545   -0.032576   -0.014513
 step:   1.2589(harm=  1.2095)  dis= 0.02077  next Energy=  -178.946145 (dE=-0.297E-01)
 bond charge predicted
       N       E                     dE             d eps       ncg     rms          rms(c)
DAV:   1    -0.178953655972E+03   -0.13788E-01   -0.14589E+00  1096   0.548E+00    0.132E+00
DAV:   2    -0.179263267104E+03   -0.30961E+00   -0.16709E+00  2128   0.118E+01    0.698E+00
DAV:   3    -0.178944062873E+03    0.31920E+00   -0.11864E+00  2112   0.972E+00    0.503E-01
DAV:   4    -0.178949080241E+03   -0.50174E-02   -0.81156E-02  1720   0.195E+00    0.491E-01
DAV:   5    -0.178947171011E+03    0.19092E-02   -0.21355E-02  2064   0.133E+00    0.386E-01
DAV:   6    -0.178946673813E+03    0.49720E-03   -0.71567E-03  2000   0.860E-01    0.293E-01
DAV:   7    -0.178946265051E+03    0.40876E-03   -0.36811E-03  2088   0.538E-01    0.151E-01
DAV:   8    -0.178946028804E+03    0.23625E-03   -0.18457E-03  1984   0.320E-01    0.596E-02
DAV:   9    -0.178946029368E+03   -0.56354E-06   -0.38100E-04  1784   0.147E-01    0.508E-02
DAV:  10    -0.178946002810E+03    0.26557E-04   -0.18731E-04  1704   0.972E-02    0.177E-02
DAV:  11    -0.178946005101E+03   -0.22907E-05   -0.25072E-05   816   0.597E-02
 260 F= -.17894601E+03 E0= -.17889156E+03  d E =-.295444E-01
 curvature:  -0.79 expect dE=-0.263E-01 dE for cont linesearch -0.948E-05
 trial: gam= 0.69297 g(F)=  0.108E-01 g(S)=  0.226E-01 ort =-0.876E-03 (trialstep = 0.788E+00)
 search vector abs. value=  0.629E-01
 bond charge predicted
       N       E                     dE             d eps       ncg     rms          rms(c)
DAV:   1    -0.178985481397E+03   -0.39479E-01   -0.26961E+00  1160   0.823E+00    0.226E+00
DAV:   2    -0.179853808209E+03   -0.86833E+00   -0.46064E+00  2160   0.198E+01    0.118E+01
DAV:   3    -0.178948848934E+03    0.90496E+00   -0.34505E+00  2160   0.172E+01    0.721E-01
DAV:   4    -0.178967609470E+03   -0.18761E-01   -0.26936E-01  1744   0.341E+00    0.875E-01
DAV:   5    -0.178961481481E+03    0.61280E-02   -0.60899E-02  1824   0.209E+00    0.585E-01
DAV:   6    -0.178960985868E+03    0.49561E-03   -0.18275E-02  2136   0.117E+00    0.567E-01
DAV:   7    -0.178959356470E+03    0.16294E-02   -0.90162E-03  2096   0.855E-01    0.259E-01
DAV:   8    -0.178958876131E+03    0.48034E-03   -0.40214E-03  2104   0.545E-01    0.942E-02
DAV:   9    -0.178958850812E+03    0.25319E-04   -0.76568E-04  1848   0.217E-01    0.660E-02
DAV:  10    -0.178958811280E+03    0.39532E-04   -0.39999E-04  1744   0.148E-01    0.323E-02
DAV:  11    -0.178958815314E+03   -0.40345E-05   -0.10657E-04  1720   0.903E-02    0.383E-02
DAV:  12    -0.178958803394E+03    0.11920E-04   -0.40470E-05  1216   0.772E-02    0.161E-02
DAV:  13    -0.178958802702E+03    0.69163E-06   -0.21977E-05   832   0.340E-02
 261 F= -.17895880E+03 E0= -.17890503E+03  d E =-.127976E-01
 trial-energy change:   -0.012798  1 .order   -0.012567   -0.025870    0.000736
 step:   0.7675(harm=  0.7665)  dis= 0.00965  next Energy=  -178.958812 (dE=-0.128E-01)
 bond charge predicted
       N       E                     dE             d eps       ncg     rms          rms(c)
DAV:   1    -0.178958831274E+03   -0.27880E-04   -0.19070E-03  1272   0.221E-01    0.623E-02
DAV:   2    -0.178959524928E+03   -0.69365E-03   -0.36950E-03  2168   0.544E-01    0.336E-01
DAV:   3    -0.178958799644E+03    0.72528E-03   -0.27542E-03  2168   0.473E-01    0.199E-02
DAV:   4    -0.178958809753E+03   -0.10110E-04   -0.16584E-04  1664   0.912E-02    0.216E-02
DAV:   5    -0.178958803536E+03    0.62177E-05   -0.24642E-05   872   0.595E-02
 262 F= -.17895880E+03 E0= -.17890502E+03  d E =-.127984E-01
 curvature:  -0.73 expect dE=-0.654E-02 dE for cont linesearch -0.196E-05
 trial: gam= 0.26376 g(F)=  0.615E-02 g(S)=  0.278E-02 ort =-0.410E-03 (trialstep = 0.784E+00)
 search vector abs. value=  0.131E-01
 bond charge predicted
       N       E                     dE             d eps       ncg     rms          rms(c)
DAV:   1    -0.178964141357E+03   -0.53316E-02   -0.65552E-01  1088   0.305E+00    0.468E-01
DAV:   2    -0.179004574162E+03   -0.40433E-01   -0.23678E-01  2104   0.442E+00    0.243E+00
DAV:   3    -0.178964122280E+03    0.40452E-01   -0.15636E-01  2104   0.360E+00    0.286E-01
DAV:   4    -0.178964217634E+03   -0.95355E-04   -0.10217E-02  1752   0.769E-01    0.164E-01
DAV:   5    -0.178964176915E+03    0.40719E-04   -0.27417E-03  2032   0.505E-01    0.205E-01
DAV:   6    -0.178963974211E+03    0.20270E-03   -0.23964E-03  2016   0.457E-01    0.135E-01
DAV:   7    -0.178963968089E+03    0.61223E-05   -0.13100E-03  2104   0.313E-01    0.107E-01
DAV:   8    -0.178963841507E+03    0.12658E-03   -0.80067E-04  1968   0.206E-01    0.252E-02
DAV:   9    -0.178963850284E+03   -0.87770E-05   -0.16767E-04  1680   0.903E-02    0.313E-02
DAV:  10    -0.178963840040E+03    0.10244E-04   -0.54574E-05  1200   0.584E-02    0.109E-02
DAV:  11    -0.178963840127E+03   -0.87533E-07   -0.10945E-05   652   0.327E-02
 263 F= -.17896384E+03 E0= -.17891013E+03  d E =-.503659E-02
 trial-energy change:   -0.005037  1 .order   -0.005082   -0.006921   -0.003243
 step:   1.5974(harm=  1.4755)  dis= 0.01267  next Energy=  -178.965471 (dE=-0.667E-02)
 bond charge predicted
       N       E                     dE             d eps       ncg     rms          rms(c)
DAV:   1    -0.178965445752E+03   -0.16057E-02   -0.70519E-01  1088   0.316E+00    0.480E-01
DAV:   2    -0.179007808846E+03   -0.42363E-01   -0.24912E-01  2104   0.452E+00    0.248E+00
DAV:   3    -0.178965456462E+03    0.42352E-01   -0.16408E-01  2104   0.369E+00    0.294E-01
DAV:   4    -0.178965555824E+03   -0.99362E-04   -0.10898E-02  1768   0.794E-01    0.170E-01
DAV:   5    -0.178965486726E+03    0.69099E-04   -0.29302E-03  2040   0.518E-01    0.205E-01
DAV:   6    -0.178965291879E+03    0.19485E-03   -0.25282E-03  2016   0.466E-01    0.141E-01
DAV:   7    -0.178965281001E+03    0.10879E-04   -0.13713E-03  2088   0.322E-01    0.111E-01
DAV:   8    -0.178965147248E+03    0.13375E-03   -0.83747E-04  1992   0.214E-01    0.258E-02
DAV:   9    -0.178965157297E+03   -0.10049E-04   -0.18307E-04  1720   0.946E-02    0.339E-02
DAV:  10    -0.178965145978E+03    0.11319E-04   -0.65723E-05  1320   0.647E-02    0.126E-02
DAV:  11    -0.178965145676E+03    0.30154E-06   -0.10894E-05   660   0.360E-02
 264 F= -.17896515E+03 E0= -.17891163E+03  d E =-.634214E-02
 curvature:  -1.06 expect dE=-0.209E-02 dE for cont linesearch -0.485E-04
 ZBRENT: interpolating
 opt :   1.4691  next Energy=  -178.965195 (dE=-0.639E-02)
 bond charge predicted
       N       E                     dE             d eps       ncg     rms          rms(c)
DAV:   1    -0.178965208846E+03   -0.62868E-04   -0.17495E-02  1088   0.496E-01    0.747E-02
DAV:   2    -0.178966246572E+03   -0.10377E-02   -0.60362E-03  2112   0.709E-01    0.387E-01
DAV:   3    -0.178965212437E+03    0.10341E-02   -0.39864E-03  2112   0.580E-01    0.458E-02
DAV:   4    -0.178965215201E+03   -0.27638E-05   -0.26426E-04  1752   0.124E-01    0.269E-02
DAV:   5    -0.178965213351E+03    0.18508E-05   -0.62136E-05  1392   0.820E-02
 265 F= -.17896521E+03 E0= -.17891164E+03  d E =-.640981E-02
 curvature:  -1.08 expect dE=-0.190E-02 dE for cont linesearch -0.397E-05
 trial: gam= 0.21055 g(F)=  0.113E-02 g(S)=  0.627E-03 ort =-0.219E-03 (trialstep = 0.921E+00)
 search vector abs. value=  0.224E-02
 bond charge predicted
       N       E                     dE             d eps       ncg     rms          rms(c)
DAV:   1    -0.178967482004E+03   -0.22668E-02   -0.15813E-01  1176   0.201E+00    0.542E-01
DAV:   2    -0.179019325309E+03   -0.51843E-01   -0.26674E-01  2136   0.473E+00    0.289E+00
DAV:   3    -0.178965586777E+03    0.53739E-01   -0.19950E-01  2144   0.407E+00    0.159E-01
DAV:   4    -0.178966681478E+03   -0.10947E-02   -0.14198E-02  1728   0.769E-01    0.229E-01
DAV:   5    -0.178966224591E+03    0.45689E-03   -0.35183E-03  1832   0.480E-01    0.126E-01
DAV:   6    -0.178966223450E+03    0.11402E-05   -0.88909E-04  2120   0.279E-01    0.129E-01
DAV:   7    -0.178966132571E+03    0.90880E-04   -0.46738E-04  2064   0.192E-01    0.529E-02
DAV:   8    -0.178966112562E+03    0.20008E-04   -0.18867E-04  2008   0.108E-01    0.195E-02
DAV:   9    -0.178966111738E+03    0.82456E-06   -0.30206E-05   924   0.501E-02
 266 F= -.17896611E+03 E0= -.17891293E+03  d E =-.898387E-03
 trial-energy change:   -0.000898  1 .order   -0.000819   -0.001574   -0.000065
 step:   0.9512(harm=  0.9610)  dis= 0.00309  next Energy=  -178.966113 (dE=-0.899E-03)
 bond charge predicted
       N       E                     dE             d eps       ncg     rms          rms(c)
DAV:   1    -0.178966114458E+03   -0.18957E-05   -0.18856E-04  1392   0.756E-02    0.145E-02
DAV:   2    -0.178966136688E+03   -0.22230E-04   -0.11994E-04  1864   0.103E-01    0.570E-02
DAV:   3    -0.178966113676E+03    0.23012E-04   -0.84808E-05  1648   0.920E-02    0.843E-03
DAV:   4    -0.178966113767E+03   -0.91549E-07   -0.13676E-05   688   0.260E-02
 267 F= -.17896611E+03 E0= -.17891294E+03  d E =-.900417E-03
 curvature:  -0.59 expect dE=-0.558E-03 dE for cont linesearch -0.224E-05
 trial: gam= 0.47211 g(F)=  0.368E-03 g(S)=  0.574E-03 ort = 0.921E-04 (trialstep = 0.927E+00)
 search vector abs. value=  0.153E-02
 bond charge predicted
       N       E                     dE             d eps       ncg     rms          rms(c)
DAV:   1    -0.178967184768E+03   -0.10711E-02   -0.98247E-02  1144   0.148E+00    0.368E-01
DAV:   2    -0.178991017458E+03   -0.23833E-01   -0.12509E-01  2144   0.322E+00    0.196E+00
DAV:   3    -0.178966355682E+03    0.24662E-01   -0.91000E-02  2136   0.270E+00    0.112E-01
DAV:   4    -0.178966835839E+03   -0.48016E-03   -0.63175E-03  1736   0.521E-01    0.152E-01
DAV:   5    -0.178966613289E+03    0.22255E-03   -0.18071E-03  1904   0.356E-01    0.849E-02
DAV:   6    -0.178966619588E+03   -0.62983E-05   -0.53529E-04  2048   0.210E-01    0.935E-02
DAV:   7    -0.178966568706E+03    0.50882E-04   -0.27478E-04  2000   0.149E-01    0.390E-02
DAV:   8    -0.178966555868E+03    0.12838E-04   -0.10383E-04  1592   0.844E-02    0.154E-02
DAV:   9    -0.178966554173E+03    0.16944E-05   -0.19837E-05   680   0.428E-02
 268 F= -.17896655E+03 E0= -.17891346E+03  d E =-.440406E-03
 trial-energy change:   -0.000440  1 .order   -0.000453   -0.000913    0.000008
 step:   0.9190(harm=  0.9190)  dis= 0.00200  next Energy=  -178.966566 (dE=-0.453E-03)
 bond charge predicted
       N       E                     dE             d eps       ncg     rms          rms(c)
DAV:   1    -0.178966552898E+03    0.29697E-05   -0.12496E-05   652   0.308E-02    0.747E-03
DAV:   2    -0.178966563825E+03   -0.10927E-04   -0.60253E-05  1376   0.655E-02    0.389E-02
DAV:   3    -0.178966553061E+03    0.10764E-04   -0.30735E-05   976   0.623E-02    0.561E-03
DAV:   4    -0.178966553187E+03   -0.12532E-06   -0.50684E-06   616   0.155E-02
 269 F= -.17896655E+03 E0= -.17891347E+03  d E =-.439419E-03
 curvature:  -0.71 expect dE=-0.128E-03 dE for cont linesearch -0.811E-06
 ZBRENT: interpolating
 opt :   0.9257  next Energy=  -178.966554 (dE=-0.440E-03)
 bond charge predicted
       N       E                     dE             d eps       ncg     rms          rms(c)
DAV:   1    -0.178966553627E+03   -0.56557E-06   -0.59648E-06   616   0.144E-02    0.456E-03
DAV:   2    -0.178966555433E+03   -0.18064E-05   -0.94760E-06   648   0.285E-02
 270 F= -.17896656E+03 E0= -.17891347E+03  d E =-.441666E-03
 curvature:  -0.01 expect dE=-0.202E-05 dE for cont linesearch -0.510E-07
 ZBRENT: interpolating
 opt :   0.9207  next Energy=  -178.966553 (dE=-0.439E-03)
 bond charge predicted
       N       E                     dE             d eps       ncg     rms          rms(c)
DAV:   1    -0.178966553916E+03   -0.28966E-06   -0.51338E-06   616   0.276E-02    0.304E-03
DAV:   2    -0.178966554751E+03   -0.83487E-06   -0.41665E-06   616   0.203E-02
 271 F= -.17896655E+03 E0= -.17891347E+03  d E =-.440984E-03
 curvature:  -0.00 expect dE=-0.530E-06 dE for cont linesearch -0.351E-07
 ZBRENT: bisectioning
 opt :   0.9232  next Energy=  -178.966555 (dE=-0.441E-03)
 bond charge predicted
       N       E                     dE             d eps       ncg     rms          rms(c)
DAV:   1    -0.178966554209E+03   -0.29207E-06   -0.24918E-06   616   0.215E-02    0.211E-03
DAV:   2    -0.178966554544E+03   -0.33519E-06   -0.15653E-06   592   0.155E-02
 272 F= -.17896655E+03 E0= -.17891347E+03  d E =-.440777E-03
 curvature:  -0.05 expect dE=-0.732E-05 dE for cont linesearch -0.533E-07
 ZBRENT: interpolating
 opt :   0.9242  next Energy=  -178.966555 (dE=-0.441E-03)
 bond charge predicted
       N       E                     dE             d eps       ncg     rms          rms(c)
DAV:   1    -0.178966554293E+03   -0.84578E-07   -0.10873E-06   580   0.150E-02    0.190E-03
DAV:   2    -0.178966554769E+03   -0.47553E-06   -0.13666E-06   580   0.173E-02
 273 F= -.17896655E+03 E0= -.17891347E+03  d E =-.441002E-03
 curvature:  -0.02 expect dE=-0.347E-05 dE for cont linesearch -0.237E-07
 ZBRENT: bisectioning
 opt :   0.9250  next Energy=  -178.966555 (dE=-0.441E-03)
 bond charge predicted
       N       E                     dE             d eps       ncg     rms          rms(c)
DAV:   1    -0.178966554305E+03   -0.11453E-07   -0.91623E-07   580   0.157E-02    0.122E-03
DAV:   2    -0.178966554402E+03   -0.97243E-07   -0.67498E-07   580   0.928E-03
 274 F= -.17896655E+03 E0= -.17891347E+03  d E =-.440635E-03
 curvature:  -0.03 expect dE=-0.553E-05 dE for cont linesearch -0.486E-09
 trial: gam= 0.27180 g(F)=  0.103E-03 g(S)=  0.906E-04 ort =-0.510E-05 (trialstep = 0.927E+00)
 search vector abs. value=  0.304E-03
 bond charge predicted
       N       E                     dE             d eps       ncg     rms          rms(c)
DAV:   1    -0.178966757355E+03   -0.20305E-03   -0.17630E-02  1120   0.589E-01    0.138E-01
DAV:   2    -0.178970007891E+03   -0.32505E-02   -0.17395E-02  2136   0.121E+00    0.719E-01
DAV:   3    -0.178966655996E+03    0.33519E-02   -0.12568E-02  2136   0.102E+00    0.532E-02
DAV:   4    -0.178966708607E+03   -0.52611E-04   -0.91808E-04  1736   0.209E-01    0.565E-02
DAV:   5    -0.178966683861E+03    0.24746E-04   -0.26403E-04  2008   0.144E-01    0.403E-02
DAV:   6    -0.178966678488E+03    0.53728E-05   -0.94295E-05  1744   0.939E-02
 275 F= -.17896668E+03 E0= -.17891372E+03  d E =-.124086E-03
 trial-energy change:   -0.000124  1 .order   -0.000137   -0.000178   -0.000095
 step:   1.9905(harm=  1.9905)  dis= 0.00216  next Energy=  -178.966746 (dE=-0.191E-03)
 bond charge predicted
       N       E                     dE             d eps       ncg     rms          rms(c)
DAV:   1    -0.178966758997E+03   -0.75137E-04   -0.23135E-02  1120   0.678E-01    0.166E-01
DAV:   2    -0.178971482450E+03   -0.47235E-02   -0.25191E-02  2120   0.144E+00    0.870E-01
DAV:   3    -0.178966599646E+03    0.48828E-02   -0.18145E-02  2120   0.123E+00    0.613E-02
DAV:   4    -0.178966682159E+03   -0.82512E-04   -0.12982E-03  1736   0.254E-01    0.717E-02
DAV:   5    -0.178966643871E+03    0.38288E-04   -0.37656E-04  1992   0.184E-01    0.535E-02
DAV:   6    -0.178966634891E+03    0.89801E-05   -0.12540E-04  1792   0.114E-01    0.411E-02
DAV:   7    -0.178966625378E+03    0.95129E-05   -0.57182E-05  1464   0.682E-02
 276 F= -.17896663E+03 E0= -.17891383E+03  d E =-.709758E-04
 curvature:  -1.57 expect dE=-0.562E-03 dE for cont linesearch -0.107E-03
 ZBRENT: interpolating
 opt :   1.3708  next Energy=  -178.966701 (dE=-0.147E-03)
 bond charge predicted
       N       E                     dE             d eps       ncg     rms          rms(c)
DAV:   1    -0.178966726764E+03   -0.91873E-04   -0.79150E-03  1120   0.396E-01    0.958E-02
DAV:   2    -0.178968353811E+03   -0.16270E-02   -0.86672E-03  2136   0.856E-01    0.509E-01
DAV:   3    -0.178966670753E+03    0.16831E-02   -0.62663E-03  2136   0.719E-01    0.357E-02
DAV:   4    -0.178966692914E+03   -0.22161E-04   -0.42568E-04  1728   0.142E-01    0.358E-02
DAV:   5    -0.178966681462E+03    0.11452E-04   -0.98244E-05  1536   0.935E-02    0.268E-02
DAV:   6    -0.178966677371E+03    0.40909E-05   -0.31431E-05  1104   0.663E-02
 277 F= -.17896668E+03 E0= -.17891379E+03  d E =-.122969E-03
 curvature:  -0.34 expect dE=-0.939E-04 dE for cont linesearch -0.793E-05
 ZBRENT: interpolating
 opt :   1.1703  next Energy=  -178.966686 (dE=-0.131E-03)
 bond charge predicted
       N       E                     dE             d eps       ncg     rms          rms(c)
DAV:   1    -0.178966690101E+03   -0.86393E-05   -0.84326E-04  1216   0.134E-01    0.381E-02
DAV:   2    -0.178966948220E+03   -0.25812E-03   -0.14295E-03  2128   0.330E-01    0.205E-01
DAV:   3    -0.178966677864E+03    0.27036E-03   -0.10244E-03  2120   0.291E-01    0.159E-02
DAV:   4    -0.178966679935E+03   -0.20718E-05   -0.63196E-05  1352   0.618E-02
 278 F= -.17896668E+03 E0= -.17891375E+03  d E =-.125534E-03
 curvature:  -0.36 expect dE=-0.339E-04 dE for cont linesearch -0.100E-05
 trial: gam= 0.64041 g(F)=  0.330E-04 g(S)=  0.612E-04 ort =-0.291E-04 (trialstep = 0.975E+00)
 search vector abs. value=  0.181E-03
 reached required accuracy - stopping structural energy minimisation
