<?xml version="1.0" encoding="ISO-8859-1"?>
<modeling>
 <generator>
  <i name="program" type="string">vasp </i>
  <i name="version" type="string">5.4.4.18Apr17-6-g9f103f2a35  </i>
  <i name="subversion" type="string">(build Jul 11 2019 11:52:51) complex            parallel </i>
  <i name="platform" type="string">LinuxIFC </i>
  <i name="date" type="string">2023 11 29 </i>
  <i name="time" type="string">17:56:55 </i>
 </generator>
 <incar>
  <i type="int" name="ISTART">     0</i>
  <i type="string" name="PREC">normal</i>
  <i type="int" name="IBRION">     2</i>
  <i name="EDIFF">      0.00001000</i>
  <i name="EDIFFG">     -0.01000000</i>
  <i type="int" name="NSW">   500</i>
  <i type="int" name="ISIF">     3</i>
  <i name="POTIM">      0.50000000</i>
  <i type="int" name="ISMEAR">     0</i>
  <i name="SIGMA">      0.10000000</i>
  <i name="PSTRESS">      0.00000000</i>
  <i type="logical" name="LWAVE"> F  </i>
  <i type="logical" name="LCHARG"> F  </i>
  <v type="int" name="KPOINT_BSE">    -1     0     0     0</v>
 </incar>
 <structure name="primitive_cell" >
  <crystal>
   <varray name="basis" >
    <v>       7.29559500       0.00000000       0.00000000 </v>
    <v>      -0.37583600       5.87895500       0.00000000 </v>
    <v>       2.90759300       0.87029200       6.04031600 </v>
   </varray>
   <i name="volume">    259.07202060 </i>
   <varray name="rec_basis" >
    <v>       0.13706901       0.00876269      -0.06724267 </v>
    <v>       0.00000000       0.17009826      -0.02450785 </v>
    <v>       0.00000000       0.00000000       0.16555425 </v>
   </varray>
  </crystal>
  <varray name="positions" >
   <v>       0.14038900      -0.01114100       0.04499800 </v>
   <v>       0.27399800       0.19700100       0.13546200 </v>
   <v>      -0.08609400      -0.28386700       0.10336700 </v>
   <v>      -0.05655000      -0.05216700       0.40516100 </v>
   <v>       0.22360000      -0.38015200       0.02645200 </v>
   <v>       0.30903000      -0.19161100       0.23820400 </v>
   <v>       0.39712200      -0.12666500      -0.30346500 </v>
   <v>       0.19573800       0.36763300      -0.21048300 </v>
   <v>       0.11109300       0.08162500      -0.36693200 </v>
   <v>       0.47038200       0.25436900      -0.35728200 </v>
   <v>      -0.32788700       0.04751000       0.43962800 </v>
   <v>      -0.10310100       0.47303200       0.35808900 </v>
   <v>       0.38644900       0.22858100       0.32546400 </v>
   <v>      -0.32599700      -0.07399200       0.02550900 </v>
   <v>       0.09691800      -0.39023600      -0.30757500 </v>
   <v>      -0.28906200       0.29659400       0.12589100 </v>
   <v>      -0.31631300       0.37574100      -0.20823600 </v>
   <v>      -0.42185400      -0.39991200       0.02295200 </v>
   <v>       0.48223100      -0.15278300       0.40428400 </v>
   <v>      -0.40647800      -0.46510500       0.45198700 </v>
  </varray>
 </structure>
 <varray name="primitive_index" >
  <v type="int" >        1 </v>
  <v type="int" >       16 </v>
  <v type="int" >       14 </v>
  <v type="int" >        8 </v>
  <v type="int" >       20 </v>
  <v type="int" >       11 </v>
  <v type="int" >       10 </v>
  <v type="int" >       13 </v>
  <v type="int" >       19 </v>
  <v type="int" >        7 </v>
  <v type="int" >       12 </v>
  <v type="int" >        3 </v>
  <v type="int" >        4 </v>
  <v type="int" >        9 </v>
  <v type="int" >       15 </v>
  <v type="int" >       18 </v>
  <v type="int" >        6 </v>
  <v type="int" >        2 </v>
  <v type="int" >        5 </v>
  <v type="int" >       17 </v>
 </varray>
 <kpoints>
  <generation param="Gamma">
   <v type="int" name="divisions">       2        2        2 </v>
   <v name="usershift">      0.00000000       0.00000000       0.00000000 </v>
   <v name="genvec1">      0.50000000       0.00000000       0.00000000 </v>
   <v name="genvec2">      0.00000000       0.50000000       0.00000000 </v>
   <v name="genvec3">      0.00000000       0.00000000       0.50000000 </v>
   <v name="shift">      0.00000000       0.00000000       0.00000000 </v>
  </generation>
  <varray name="kpointlist" >
   <v>       0.00000000       0.00000000       0.00000000 </v>
   <v>       0.50000000      -0.00000000      -0.00000000 </v>
   <v>       0.00000000       0.50000000       0.00000000 </v>
   <v>       0.50000000       0.50000000       0.00000000 </v>
   <v>       0.00000000       0.00000000       0.50000000 </v>
   <v>       0.50000000      -0.00000000       0.50000000 </v>
   <v>       0.00000000       0.50000000       0.50000000 </v>
   <v>       0.50000000       0.50000000       0.50000000 </v>
  </varray>
  <varray name="weights" >
   <v>       0.12500000 </v>
   <v>       0.12500000 </v>
   <v>       0.12500000 </v>
   <v>       0.12500000 </v>
   <v>       0.12500000 </v>
   <v>       0.12500000 </v>
   <v>       0.12500000 </v>
   <v>       0.12500000 </v>
  </varray>
 </kpoints>
 <parameters>
  <separator name="general" >
   <i type="string" name="SYSTEM">unknown system</i>
   <i type="logical" name="LCOMPAT"> F  </i>
  </separator>
  <separator name="electronic" >
   <i type="string" name="PREC">normal</i>
   <i name="ENMAX">    267.88200000</i>
   <i name="ENAUG">    511.36800000</i>
   <i name="EDIFF">      0.00001000</i>
   <i type="int" name="IALGO">    38</i>
   <i type="int" name="IWAVPR">    11</i>
   <i type="int" name="NBANDS">    68</i>
   <i name="NELECT">    109.00000000</i>
   <i type="int" name="TURBO">     0</i>
   <i type="int" name="IRESTART">     0</i>
   <i type="int" name="NREBOOT">     0</i>
   <i type="int" name="NMIN">     0</i>
   <i name="EREF">      0.00000000</i>
   <separator name="electronic smearing" >
    <i type="int" name="ISMEAR">     0</i>
    <i name="SIGMA">      0.10000000</i>
    <i name="KSPACING">      0.50000000</i>
    <i type="logical" name="KGAMMA"> T  </i>
   </separator>
   <separator name="electronic projectors" >
    <i type="logical" name="LREAL"> F  </i>
    <v name="ROPT">      0.00000000      0.00000000</v>
    <i type="int" name="LMAXPAW">  -100</i>
    <i type="int" name="LMAXMIX">     2</i>
    <i type="logical" name="NLSPLINE"> F  </i>
   </separator>
   <separator name="electronic startup" >
    <i type="int" name="ISTART">     0</i>
    <i type="int" name="ICHARG">     2</i>
    <i type="int" name="INIWAV">     1</i>
   </separator>
   <separator name="electronic spin" >
    <i type="int" name="ISPIN">     1</i>
    <i type="logical" name="LNONCOLLINEAR"> F  </i>
    <v name="MAGMOM">      1.00000000      1.00000000      1.00000000      1.00000000      1.00000000      1.00000000      1.00000000      1.00000000      1.00000000      1.00000000      1.00000000      1.00000000      1.00000000      1.00000000      1.00000000      1.00000000      1.00000000      1.00000000      1.00000000      1.00000000
</v>
    <i name="NUPDOWN">     -1.00000000</i>
    <i type="logical" name="LSORBIT"> F  </i>
    <v name="SAXIS">      0.00000000      0.00000000      1.00000000</v>
    <i type="logical" name="LSPIRAL"> F  </i>
    <v name="QSPIRAL">      0.00000000      0.00000000      0.00000000</v>
    <i type="logical" name="LZEROZ"> F  </i>
   </separator>
   <separator name="electronic exchange-correlation" >
    <i type="logical" name="LASPH"> F  </i>
    <i type="logical" name="LMETAGGA"> F  </i>
   </separator>
   <separator name="electronic convergence" >
    <i type="int" name="NELM">    60</i>
    <i type="int" name="NELMDL">    -5</i>
    <i type="int" name="NELMIN">     2</i>
    <i name="ENINI">    267.88200000</i>
    <separator name="electronic convergence detail" >
     <i type="logical" name="LDIAG"> T  </i>
     <i type="logical" name="LSUBROT"> F  </i>
     <i name="WEIMIN">      0.00100000</i>
     <i name="EBREAK">      0.00000004</i>
     <i name="DEPER">      0.30000000</i>
     <i type="int" name="NRMM">     4</i>
     <i name="TIME">      0.40000000</i>
    </separator>
   </separator>
   <separator name="electronic mixer" >
    <i name="AMIX">      0.40000000</i>
    <i name="BMIX">      1.00000000</i>
    <i name="AMIN">      0.10000000</i>
    <i name="AMIX_MAG">      1.60000000</i>
    <i name="BMIX_MAG">      1.00000000</i>
    <separator name="electronic mixer details" >
     <i type="int" name="IMIX">     4</i>
     <i type="logical" name="MIXFIRST"> F  </i>
     <i type="int" name="MAXMIX">   -45</i>
     <i name="WC">    100.00000000</i>
     <i type="int" name="INIMIX">     1</i>
     <i type="int" name="MIXPRE">     1</i>
     <i type="int" name="MREMOVE">     5</i>
    </separator>
   </separator>
   <separator name="electronic dipolcorrection" >
    <i type="logical" name="LDIPOL"> F  </i>
    <i type="logical" name="LMONO"> F  </i>
    <i type="int" name="IDIPOL">     0</i>
    <i name="EPSILON">      1.00000000</i>
    <v name="DIPOL">   -100.00000000   -100.00000000   -100.00000000</v>
    <i name="EFIELD">      0.00000000</i>
   </separator>
  </separator>
  <separator name="grids" >
   <i type="int" name="NGX">    30</i>
   <i type="int" name="NGY">    24</i>
   <i type="int" name="NGZ">    28</i>
   <i type="int" name="NGXF">    60</i>
   <i type="int" name="NGYF">    48</i>
   <i type="int" name="NGZF">    56</i>
   <i type="logical" name="ADDGRID"> F  </i>
  </separator>
  <separator name="ionic" >
   <i type="int" name="NSW">   500</i>
   <i type="int" name="IBRION">     2</i>
   <i type="int" name="MDALGO">     0</i>
   <i type="int" name="ISIF">     3</i>
   <i name="PSTRESS">      0.00000000</i>
   <i name="EDIFFG">     -0.01000000</i>
   <i type="int" name="NFREE">     1</i>
   <i name="POTIM">      0.50000000</i>
   <i name="SMASS">     -3.00000000</i>
   <i name="SCALEE">      1.00000000</i>
  </separator>
  <separator name="ionic md" >
   <i name="TEBEG">      0.00010000</i>
   <i name="TEEND">      0.00010000</i>
   <i type="int" name="NBLOCK">     1</i>
   <i type="int" name="KBLOCK">   500</i>
   <i type="int" name="NPACO">   256</i>
   <i name="APACO">     16.00000000</i>
  </separator>
  <separator name="symmetry" >
   <i type="int" name="ISYM">     2</i>
   <i name="SYMPREC">      0.00001000</i>
  </separator>
  <separator name="dos" >
   <i type="int" name="LORBIT">     0</i>
   <v name="RWIGS">     -1.00000000     -1.00000000</v>
   <i type="int" name="NEDOS">   301</i>
   <i name="EMIN">     10.00000000</i>
   <i name="EMAX">    -10.00000000</i>
   <i name="EFERMI">      0.00000000</i>
  </separator>
  <separator name="writing" >
   <i type="int" name="NWRITE">     2</i>
   <i type="logical" name="LWAVE"> F  </i>
   <i type="logical" name="LDOWNSAMPLE"> F  </i>
   <i type="logical" name="LCHARG"> F  </i>
   <i type="logical" name="LPARD"> F  </i>
   <i type="logical" name="LVTOT"> F  </i>
   <i type="logical" name="LVHAR"> F  </i>
   <i type="logical" name="LELF"> F  </i>
   <i type="logical" name="LOPTICS"> F  </i>
   <v name="STM">      0.00000000      0.00000000      0.00000000      0.00000000      0.00000000      0.00000000      0.00000000</v>
  </separator>
  <separator name="performance" >
   <i type="int" name="NPAR">     4</i>
   <i type="int" name="NSIM">     4</i>
   <i type="int" name="NBLK">    -1</i>
   <i type="logical" name="LPLANE"> T  </i>
   <i type="logical" name="LSCALAPACK"> T  </i>
   <i type="logical" name="LSCAAWARE"> F  </i>
   <i type="logical" name="LSCALU"> F  </i>
   <i type="logical" name="LASYNC"> F  </i>
   <i type="logical" name="LORBITALREAL"> F  </i>
  </separator>
  <separator name="miscellaneous" >
   <i type="int" name="IDIOT">     3</i>
   <i type="int" name="ISPECIAL">     0</i>
   <i type="logical" name="LMUSIC"> F  </i>
   <v name="POMASS">     50.94100000     55.84700000</v>
   <v name="DARWINR">      0.00000000      0.00000000</v>
   <v name="DARWINV">      1.00000000      1.00000000</v>
   <i type="logical" name="LCORR"> T  </i>
  </separator>
  <i type="logical" name="GGA_COMPAT"> T  </i>
  <i type="logical" name="LBERRY"> F  </i>
  <i type="int" name="ICORELEVEL">     0</i>
  <i type="logical" name="LDAU"> F  </i>
  <i type="int" name="I_CONSTRAINED_M">     0</i>
  <separator name="electronic exchange-correlation" >
   <i type="string" name="GGA">--</i>
   <i type="int" name="VOSKOWN">     0</i>
   <i type="logical" name="LHFCALC"> F  </i>
   <i type="string" name="PRECFOCK"></i>
   <i type="logical" name="LSYMGRAD"> F  </i>
   <i type="logical" name="LHFONE"> F  </i>
   <i type="logical" name="LRHFCALC"> F  </i>
   <i type="logical" name="LTHOMAS"> F  </i>
   <i type="logical" name="LMODELHF"> F  </i>
   <i name="ENCUT4O">     -1.00000000</i>
   <i type="int" name="EXXOEP">     0</i>
   <i type="int" name="FOURORBIT">     0</i>
   <i name="AEXX">      0.00000000</i>
   <i name="HFALPHA">      0.00000000</i>
   <i name="MCALPHA">      0.00000000</i>
   <i name="ALDAX">      1.00000000</i>
   <i name="AGGAX">      1.00000000</i>
   <i name="ALDAC">      1.00000000</i>
   <i name="AGGAC">      1.00000000</i>
   <i type="int" name="NKREDX">     1</i>
   <i type="int" name="NKREDY">     1</i>
   <i type="int" name="NKREDZ">     1</i>
   <i type="logical" name="SHIFTRED"> F  </i>
   <i type="logical" name="ODDONLY"> F  </i>
   <i type="logical" name="EVENONLY"> F  </i>
   <i type="int" name="LMAXFOCK">     0</i>
   <i type="int" name="NMAXFOCKAE">     0</i>
   <i type="logical" name="LFOCKAEDFT"> F  </i>
   <i name="HFSCREEN">      0.00000000</i>
   <i name="HFSCREENC">      0.00000000</i>
   <i type="int" name="NBANDSGWLOW">     0</i>
  </separator>
  <separator name="vdW DFT" >
   <i type="logical" name="LUSE_VDW"> F  </i>
   <i name="Zab_VDW">     -0.84910000</i>
   <i name="PARAM1">      0.12340000</i>
   <i name="PARAM2">      1.00000000</i>
   <i name="PARAM3">      0.00000000</i>
  </separator>
  <separator name="model GW" >
   <i type="int" name="MODEL_GW">     0</i>
   <i name="MODEL_EPS0">      7.77216062</i>
   <i name="MODEL_ALPHA">      1.00000000</i>
  </separator>
  <separator name="linear response parameters" >
   <i type="logical" name="LEPSILON"> F  </i>
   <i type="logical" name="LRPA"> F  </i>
   <i type="logical" name="LNABLA"> F  </i>
   <i type="logical" name="LVEL"> F  </i>
   <i type="int" name="KINTER">     0</i>
   <i name="CSHIFT">      0.10000000</i>
   <i name="OMEGAMAX">     -1.00000000</i>
   <i name="DEG_THRESHOLD">      0.00200000</i>
   <i name="RTIME">     -0.10000000</i>
   <i name="WPLASMAI">      0.00000000</i>
   <v name="DFIELD">      0.00000000      0.00000000      0.00000000</v>
   <v name="WPLASMA">      0.00000000      0.00000000      0.00000000      0.00000000      0.00000000      0.00000000      0.00000000      0.00000000      0.00000000</v>
  </separator>
  <separator name="orbital magnetization" >
   <i type="logical" name="NUCIND"> F  </i>
   <v name="MAGPOS">      0.00000000      0.00000000      0.00000000</v>
   <i type="logical" name="LNICSALL"> T  </i>
   <i type="logical" name="ORBITALMAG"> F  </i>
   <i type="logical" name="LMAGBLOCH"> F  </i>
   <i type="logical" name="LCHIMAG"> F  </i>
   <i type="logical" name="LGAUGE"> T  </i>
   <i type="int" name="MAGATOM">     0</i>
   <v name="MAGDIPOL">      0.00000000      0.00000000      0.00000000</v>
   <v name="AVECCONST">      0.00000000      0.00000000      0.00000000</v>
  </separator>
  <separator name="response functions" >
   <i type="logical" name="LADDER"> F  </i>
   <i type="logical" name="LRPAFORCE"> F  </i>
   <i type="logical" name="LFXC"> F  </i>
   <i type="logical" name="LHARTREE"> T  </i>
   <i type="int" name="IBSE">     0</i>
   <v type="int" name="KPOINT">    -1     0     0     0</v>
   <i type="logical" name="LTCTE"> F  </i>
   <i type="logical" name="LTETE"> F  </i>
   <i type="logical" name="LTRIPLET"> F  </i>
   <i type="logical" name="LFXCEPS"> F  </i>
   <i type="logical" name="LFXHEG"> F  </i>
   <i type="int" name="NATURALO">     2</i>
   <i type="logical" name="L2ORDER"> F  </i>
   <i type="logical" name="LMP2LT"> F  </i>
   <i type="logical" name="LUSEW"> F  </i>
   <i name="ENCUTGW">     -2.00000000</i>
   <i name="ENCUTGWSOFT">     -2.00000000</i>
   <i name="ENCUTLF">     -1.00000000</i>
   <i type="int" name="LMAXMP2">    -1</i>
   <i name="SCISSOR">      0.00000000</i>
   <i type="int" name="NOMEGA">     0</i>
   <i type="int" name="NOMEGAR">     0</i>
   <i type="int" name="NBANDSGW">    -1</i>
   <i type="int" name="NBANDSO">    -1</i>
   <i type="int" name="NBANDSV">    -1</i>
   <i type="int" name="NELM">     1</i>
   <i type="int" name="NELMHF">     1</i>
   <i type="int" name="DIM">     3</i>
   <i type="int" name="ANTIRES">     0</i>
   <i name="OMEGAMAX">    -30.00000000</i>
   <i name="OMEGAMIN">    -30.00000000</i>
   <i name="OMEGATL">   -200.00000000</i>
   <i type="int" name="OMEGAGRID">   140</i>
   <i name="CSHIFT">     -0.10000000</i>
   <i type="logical" name="SELFENERGY"> F  </i>
   <i type="logical" name="LSPECTRAL"> F  </i>
   <i type="logical" name="LSPECTRALGW"> F  </i>
   <i type="logical" name="LSINGLES"> F  </i>
   <i type="logical" name="LFERMIGW"> F  </i>
   <i type="logical" name="ODDONLYGW"> F  </i>
   <i type="logical" name="EVENONLYGW"> F  </i>
   <i type="int" name="NKREDLFX">     1</i>
   <i type="int" name="NKREDLFY">     1</i>
   <i type="int" name="NKREDLFZ">     1</i>
   <i type="int" name="MAXMEM">  2800</i>
   <i type="int" name="TELESCOPE">     0</i>
   <i type="int" name="TAUPAR">     1</i>
   <i type="int" name="OMEGAPAR">    -1</i>
   <i name="LAMBDA">      1.00000000</i>
  </separator>
  <separator name="External order field" >
   <i name="OFIELD_KAPPA">      0.00000000</i>
   <v name="OFIELD_K">      0.00000000      0.00000000      0.00000000</v>
   <i name="OFIELD_Q6_NEAR">      0.00000000</i>
   <i name="OFIELD_Q6_FAR">      0.00000000</i>
   <i name="OFIELD_A">      0.00000000</i>
  </separator>
 </parameters>
 <atominfo>
  <atoms>      20 </atoms>
  <types>       2 </types>
  <array name="atoms" >
   <dimension dim="1">ion</dimension>
   <field type="string">element</field>
   <field type="int">atomtype</field>
   <set>
    <rc><c>V </c><c>   1</c></rc>
    <rc><c>V </c><c>   1</c></rc>
    <rc><c>V </c><c>   1</c></rc>
    <rc><c>V </c><c>   1</c></rc>
    <rc><c>V </c><c>   1</c></rc>
    <rc><c>V </c><c>   1</c></rc>
    <rc><c>V </c><c>   1</c></rc>
    <rc><c>V </c><c>   1</c></rc>
    <rc><c>V </c><c>   1</c></rc>
    <rc><c>V </c><c>   1</c></rc>
    <rc><c>V </c><c>   1</c></rc>
    <rc><c>V </c><c>   1</c></rc>
    <rc><c>V </c><c>   1</c></rc>
    <rc><c>V </c><c>   1</c></rc>
    <rc><c>V </c><c>   1</c></rc>
    <rc><c>V </c><c>   1</c></rc>
    <rc><c>V </c><c>   1</c></rc>
    <rc><c>Fe</c><c>   2</c></rc>
    <rc><c>Fe</c><c>   2</c></rc>
    <rc><c>Fe</c><c>   2</c></rc>
   </set>
  </array>
  <array name="atomtypes" >
   <dimension dim="1">type</dimension>
   <field type="int">atomspertype</field>
   <field type="string">element</field>
   <field>mass</field>
   <field>valence</field>
   <field type="string">pseudopotential</field>
   <set>
    <rc><c>  17</c><c>V </c><c>     50.94100000</c><c>      5.00000000</c><c>  PAW_PBE V 08Apr2002                   </c></rc>
    <rc><c>   3</c><c>Fe</c><c>     55.84700000</c><c>      8.00000000</c><c>  PAW_PBE Fe 06Sep2000                  </c></rc>
   </set>
  </array>
 </atominfo>
 <structure name="initialpos" >
  <crystal>
   <varray name="basis" >
    <v>       7.29559500       0.00000000       0.00000000 </v>
    <v>      -0.37583600       5.87895500       0.00000000 </v>
    <v>       2.90759300       0.87029200       6.04031600 </v>
   </varray>
   <i name="volume">    259.07202060 </i>
   <varray name="rec_basis" >
    <v>       0.13706901       0.00876269      -0.06724267 </v>
    <v>       0.00000000       0.17009826      -0.02450785 </v>
    <v>       0.00000000       0.00000000       0.16555425 </v>
   </varray>
  </crystal>
  <varray name="positions" >
   <v>       0.14038900       0.98885900       0.04499800 </v>
   <v>       0.57814600       0.60008800       0.02295200 </v>
   <v>       0.89689900       0.47303200       0.35808900 </v>
   <v>       0.38644900       0.22858100       0.32546400 </v>
   <v>       0.48223100       0.84721700       0.40428400 </v>
   <v>       0.68368700       0.37574100       0.79176400 </v>
   <v>       0.47038200       0.25436900       0.64271800 </v>
   <v>       0.94345000       0.94783300       0.40516100 </v>
   <v>       0.67400300       0.92600800       0.02550900 </v>
   <v>       0.39712200       0.87333500       0.69653500 </v>
   <v>       0.30903000       0.80838900       0.23820400 </v>
   <v>       0.67211300       0.04751000       0.43962800 </v>
   <v>       0.19573800       0.36763300       0.78951700 </v>
   <v>       0.91390600       0.71613300       0.10336700 </v>
   <v>       0.09691800       0.60976400       0.69242500 </v>
   <v>       0.27399800       0.19700100       0.13546200 </v>
   <v>       0.59352200       0.53489500       0.45198700 </v>
   <v>       0.71093800       0.29659400       0.12589100 </v>
   <v>       0.11109300       0.08162500       0.63306800 </v>
   <v>       0.22360000       0.61984800       0.02645200 </v>
  </varray>
 </structure>
 <calculation>
  <scstep>
   <time name="dav">    0.57    0.57</time>
   <time name="total">    0.59    0.59</time>
   <energy>
    <i name="alphaZ">    552.45270233 </i>
    <i name="ewald">  -4916.30907446 </i>
    <i name="hartreedc">  -1045.20673517 </i>
    <i name="XCdc">   -770.25263282 </i>
    <i name="pawpsdc">   5171.05454107 </i>
    <i name="pawaedc">  -4356.08836938 </i>
    <i name="eentropy">     -0.06807758 </i>
    <i name="bandstr">   1367.62916451 </i>
    <i name="atom">   4687.48422623 </i>
    <i name="e_fr_energy">    690.69574474 </i>
    <i name="e_wo_entrp">    690.76382232 </i>
    <i name="e_0_energy">    690.72978353 </i>
   </energy>
  </scstep>
  <scstep>
   <time name="dav">    0.57    0.57</time>
   <time name="total">    0.57    0.57</time>
   <energy>
    <i name="e_fr_energy">    -32.87965456 </i>
    <i name="e_wo_entrp">    -32.80723824 </i>
    <i name="e_0_energy">    -32.84344640 </i>
   </energy>
  </scstep>
  <scstep>
   <time name="dav">    0.85    0.86</time>
   <time name="total">    0.86    0.86</time>
   <energy>
    <i name="e_fr_energy">   -161.90127530 </i>
    <i name="e_wo_entrp">   -161.82162947 </i>
    <i name="e_0_energy">   -161.86145239 </i>
   </energy>
  </scstep>
  <scstep>
   <time name="dav">    0.83    0.83</time>
   <time name="total">    0.83    0.83</time>
   <energy>
    <i name="e_fr_energy">   -176.51812460 </i>
    <i name="e_wo_entrp">   -176.41518549 </i>
    <i name="e_0_energy">   -176.46665505 </i>
   </energy>
  </scstep>
  <scstep>
   <time name="dav">    0.84    0.84</time>
   <time name="total">    0.87    0.87</time>
   <energy>
    <i name="e_fr_energy">   -177.50776753 </i>
    <i name="e_wo_entrp">   -177.40193850 </i>
    <i name="e_0_energy">   -177.45485302 </i>
   </energy>
  </scstep>
  <scstep>
   <time name="dav">    0.99    0.99</time>
   <time name="total">    1.04    1.04</time>
   <energy>
    <i name="e_fr_energy">   -331.18886214 </i>
    <i name="e_wo_entrp">   -331.14064562 </i>
    <i name="e_0_energy">   -331.16475388 </i>
   </energy>
  </scstep>
  <scstep>
   <time name="dav">    0.88    0.89</time>
   <time name="total">    0.93    0.93</time>
   <energy>
    <i name="e_fr_energy">   -208.09910345 </i>
    <i name="e_wo_entrp">   -207.99173155 </i>
    <i name="e_0_energy">   -208.04541750 </i>
   </energy>
  </scstep>
  <scstep>
   <time name="dav">    0.95    0.95</time>
   <time name="total">    0.99    0.99</time>
   <energy>
    <i name="e_fr_energy">   -156.87839645 </i>
    <i name="e_wo_entrp">   -156.77117656 </i>
    <i name="e_0_energy">   -156.82478650 </i>
   </energy>
  </scstep>
  <scstep>
   <time name="dav">    0.96    0.97</time>
   <time name="total">    1.01    1.01</time>
   <energy>
    <i name="e_fr_energy">   -158.11328840 </i>
    <i name="e_wo_entrp">   -158.00259806 </i>
    <i name="e_0_energy">   -158.05794323 </i>
   </energy>
  </scstep>
  <scstep>
   <time name="dav">    0.97    0.97</time>
   <time name="total">    1.01    1.01</time>
   <energy>
    <i name="e_fr_energy">   -160.57555032 </i>
    <i name="e_wo_entrp">   -160.46462385 </i>
    <i name="e_0_energy">   -160.52008708 </i>
   </energy>
  </scstep>
  <scstep>
   <time name="dav">    0.92    0.92</time>
   <time name="total">    0.96    0.96</time>
   <energy>
    <i name="e_fr_energy">   -152.07323008 </i>
    <i name="e_wo_entrp">   -151.93836998 </i>
    <i name="e_0_energy">   -152.00580003 </i>
   </energy>
  </scstep>
  <scstep>
   <time name="dav">    0.93    0.93</time>
   <time name="total">    0.98    0.98</time>
   <energy>
    <i name="e_fr_energy">   -151.68942245 </i>
    <i name="e_wo_entrp">   -151.56432530 </i>
    <i name="e_0_energy">   -151.62687388 </i>
   </energy>
  </scstep>
  <scstep>
   <time name="dav">    0.91    0.91</time>
   <time name="total">    0.95    0.95</time>
   <energy>
    <i name="e_fr_energy">   -151.42292883 </i>
    <i name="e_wo_entrp">   -151.29074811 </i>
    <i name="e_0_energy">   -151.35683847 </i>
   </energy>
  </scstep>
  <scstep>
   <time name="dav">    0.94    0.94</time>
   <time name="total">    0.98    0.99</time>
   <energy>
    <i name="e_fr_energy">   -151.28293332 </i>
    <i name="e_wo_entrp">   -151.15002062 </i>
    <i name="e_0_energy">   -151.21647697 </i>
   </energy>
  </scstep>
  <scstep>
   <time name="dav">    0.96    0.96</time>
   <time name="total">    1.01    1.01</time>
   <energy>
    <i name="e_fr_energy">   -151.30771525 </i>
    <i name="e_wo_entrp">   -151.17843643 </i>
    <i name="e_0_energy">   -151.24307584 </i>
   </energy>
  </scstep>
  <scstep>
   <time name="dav">    0.93    0.93</time>
   <time name="total">    0.98    0.98</time>
   <energy>
    <i name="e_fr_energy">   -151.23021653 </i>
    <i name="e_wo_entrp">   -151.09391607 </i>
    <i name="e_0_energy">   -151.16206630 </i>
   </energy>
  </scstep>
  <scstep>
   <time name="dav">    0.88    0.88</time>
   <time name="total">    0.93    0.93</time>
   <energy>
    <i name="e_fr_energy">   -151.17291519 </i>
    <i name="e_wo_entrp">   -151.03685226 </i>
    <i name="e_0_energy">   -151.10488373 </i>
   </energy>
  </scstep>
  <scstep>
   <time name="dav">    0.86    0.86</time>
   <time name="total">    0.91    0.91</time>
   <energy>
    <i name="e_fr_energy">   -151.17167786 </i>
    <i name="e_wo_entrp">   -151.03667658 </i>
    <i name="e_0_energy">   -151.10417722 </i>
   </energy>
  </scstep>
  <scstep>
   <time name="dav">    0.86    0.86</time>
   <time name="total">    0.91    0.91</time>
   <energy>
    <i name="e_fr_energy">   -151.16420578 </i>
    <i name="e_wo_entrp">   -151.02854850 </i>
    <i name="e_0_energy">   -151.09637714 </i>
   </energy>
  </scstep>
  <scstep>
   <time name="dav">    0.91    0.91</time>
   <time name="total">    0.96    0.96</time>
   <energy>
    <i name="e_fr_energy">   -151.16647033 </i>
    <i name="e_wo_entrp">   -151.03169529 </i>
    <i name="e_0_energy">   -151.09908281 </i>
   </energy>
  </scstep>
  <scstep>
   <time name="dav">    0.86    0.86</time>
   <time name="total">    0.91    0.91</time>
   <energy>
    <i name="e_fr_energy">   -151.16183233 </i>
    <i name="e_wo_entrp">   -151.02612323 </i>
    <i name="e_0_energy">   -151.09397778 </i>
   </energy>
  </scstep>
  <scstep>
   <time name="dav">    0.92    0.92</time>
   <time name="total">    0.97    0.97</time>
   <energy>
    <i name="e_fr_energy">   -151.15936948 </i>
    <i name="e_wo_entrp">   -151.02375025 </i>
    <i name="e_0_energy">   -151.09155987 </i>
   </energy>
  </scstep>
  <scstep>
   <time name="dav">    0.97    0.97</time>
   <time name="total">    1.02    1.02</time>
   <energy>
    <i name="e_fr_energy">   -151.15661651 </i>
    <i name="e_wo_entrp">   -151.02069700 </i>
    <i name="e_0_energy">   -151.08865676 </i>
   </energy>
  </scstep>
  <scstep>
   <time name="dav">    0.82    0.82</time>
   <time name="total">    0.87    0.87</time>
   <energy>
    <i name="e_fr_energy">   -151.15593192 </i>
    <i name="e_wo_entrp">   -151.02024232 </i>
    <i name="e_0_energy">   -151.08808712 </i>
   </energy>
  </scstep>
  <scstep>
   <time name="dav">    0.96    0.96</time>
   <time name="total">    1.01    1.01</time>
   <energy>
    <i name="e_fr_energy">   -151.15617378 </i>
    <i name="e_wo_entrp">   -151.01995608 </i>
    <i name="e_0_energy">   -151.08806493 </i>
   </energy>
  </scstep>
  <scstep>
   <time name="dav">    0.80    0.80</time>
   <time name="total">    0.84    0.85</time>
   <energy>
    <i name="e_fr_energy">   -151.15572512 </i>
    <i name="e_wo_entrp">   -151.01953434 </i>
    <i name="e_0_energy">   -151.08762973 </i>
   </energy>
  </scstep>
  <scstep>
   <time name="dav">    0.97    0.98</time>
   <time name="total">    1.02    1.02</time>
   <energy>
    <i name="e_fr_energy">   -151.15388973 </i>
    <i name="e_wo_entrp">   -151.01772910 </i>
    <i name="e_0_energy">   -151.08580942 </i>
   </energy>
  </scstep>
  <scstep>
   <time name="dav">    0.83    0.83</time>
   <time name="total">    0.88    0.88</time>
   <energy>
    <i name="e_fr_energy">   -151.15381567 </i>
    <i name="e_wo_entrp">   -151.01768106 </i>
    <i name="e_0_energy">   -151.08574836 </i>
   </energy>
  </scstep>
  <scstep>
   <time name="dav">    0.88    0.88</time>
   <time name="total">    0.92    0.93</time>
   <energy>
    <i name="e_fr_energy">   -151.15366972 </i>
    <i name="e_wo_entrp">   -151.01750303 </i>
    <i name="e_0_energy">   -151.08558637 </i>
   </energy>
  </scstep>
  <scstep>
   <time name="dav">    0.83    0.83</time>
   <time name="total">    0.88    0.88</time>
   <energy>
    <i name="e_fr_energy">   -151.15364352 </i>
    <i name="e_wo_entrp">   -151.01739816 </i>
    <i name="e_0_energy">   -151.08552084 </i>
   </energy>
  </scstep>
  <scstep>
   <time name="dav">    0.55    0.55</time>
   <time name="total">    0.57    0.57</time>
   <energy>
    <i name="alphaZ">    552.45270233 </i>
    <i name="ewald">  -4916.30907446 </i>
    <i name="hartreedc">   -959.51867358 </i>
    <i name="XCdc">   -768.71589114 </i>
    <i name="pawpsdc">   9283.65037480 </i>
    <i name="pawaedc">  -8486.63409530 </i>
    <i name="eentropy">     -0.13621964 </i>
    <i name="bandstr">    456.57301702 </i>
    <i name="atom">   4687.48422623 </i>
    <i name="e_fr_energy">   -151.15363374 </i>
    <i name="e_wo_entrp">   -151.01741410 </i>
    <i name="e_0_energy">   -151.08552392 </i>
   </energy>
  </scstep>
  <structure>
   <crystal>
    <varray name="basis" >
     <v>       7.29559500       0.00000000       0.00000000 </v>
     <v>      -0.37583600       5.87895500       0.00000000 </v>
     <v>       2.90759300       0.87029200       6.04031600 </v>
    </varray>
    <i name="volume">    259.07202060 </i>
    <varray name="rec_basis" >
     <v>       0.13706901       0.00876269      -0.06724267 </v>
     <v>       0.00000000       0.17009826      -0.02450785 </v>
     <v>       0.00000000       0.00000000       0.16555425 </v>
    </varray>
   </crystal>
   <varray name="positions" >
    <v>       0.14038900       0.98885900       0.04499800 </v>
    <v>       0.57814600       0.60008800       0.02295200 </v>
    <v>       0.89689900       0.47303200       0.35808900 </v>
    <v>       0.38644900       0.22858100       0.32546400 </v>
    <v>       0.48223100       0.84721700       0.40428400 </v>
    <v>       0.68368700       0.37574100       0.79176400 </v>
    <v>       0.47038200       0.25436900       0.64271800 </v>
    <v>       0.94345000       0.94783300       0.40516100 </v>
    <v>       0.67400300       0.92600800       0.02550900 </v>
    <v>       0.39712200       0.87333500       0.69653500 </v>
    <v>       0.30903000       0.80838900       0.23820400 </v>
    <v>       0.67211300       0.04751000       0.43962800 </v>
    <v>       0.19573800       0.36763300       0.78951700 </v>
    <v>       0.91390600       0.71613300       0.10336700 </v>
    <v>       0.09691800       0.60976400       0.69242500 </v>
    <v>       0.27399800       0.19700100       0.13546200 </v>
    <v>       0.59352200       0.53489500       0.45198700 </v>
    <v>       0.71093800       0.29659400       0.12589100 </v>
    <v>       0.11109300       0.08162500       0.63306800 </v>
    <v>       0.22360000       0.61984800       0.02645200 </v>
   </varray>
  </structure>
  <varray name="forces" >
   <v>      -2.64762407       1.46392446      -2.92521382 </v>
   <v>      -0.62275826       0.03750745      -1.51433610 </v>
   <v>       2.91698179      -2.06191051       0.76709149 </v>
   <v>       0.15071043       1.84016324       1.88631068 </v>
   <v>      -2.83127689      -0.99714043      -1.17672915 </v>
   <v>       1.50191784      -0.71978440      -0.57800989 </v>
   <v>       1.13432174      -1.54225708       2.13280694 </v>
   <v>       1.00379063      -1.46446221       3.68560614 </v>
   <v>       0.26596932       2.53813593      -3.31508645 </v>
   <v>      -0.39207317      -2.87678560       5.78683598 </v>
   <v>      -1.76971398      -1.50535658       1.36008636 </v>
   <v>       5.19034430       2.32958915      -2.19381819 </v>
   <v>      -1.93402092       0.99511007       1.59799204 </v>
   <v>      -2.80599717      -1.17802904      -0.71940743 </v>
   <v>      -2.94450930       1.53120072      -1.04276482 </v>
   <v>       0.22632120       2.91478448      -2.04707223 </v>
   <v>      -0.23772482       2.07260427      -0.16478636 </v>
   <v>       3.11602644       0.00301514      -1.51836735 </v>
   <v>      -0.87727188      -1.33947812       0.44019275 </v>
   <v>       1.55658673      -2.04083094      -0.46133061 </v>
  </varray>
  <varray name="stress" >
   <v>     291.31526368      22.60631004      22.76600720 </v>
   <v>      22.60630995     295.50144832     -17.05409197 </v>
   <v>      22.76600707     -17.05409209     265.03211505 </v>
  </varray>
  <energy>
   <i name="e_fr_energy">   -151.15363374 </i>
   <i name="e_wo_entrp">   -151.08552392 </i>
   <i name="e_0_energy">     -0.13621964 </i>
  </energy>
  <time name="totalsc">   29.38   29.41</time>
 </calculation>
 <calculation>
  <scstep>
   <time name="dav">    0.56    0.57</time>
   <time name="total">    0.61    0.61</time>
   <energy>
    <i name="alphaZ">    403.20804567 </i>
    <i name="ewald">  -4573.29736468 </i>
    <i name="hartreedc">   -772.54143111 </i>
    <i name="XCdc">   -784.03484850 </i>
    <i name="pawpsdc">   9282.26022667 </i>
    <i name="pawaedc">  -8485.23451756 </i>
    <i name="eentropy">     -0.16307784 </i>
    <i name="bandstr">     43.30606430 </i>
    <i name="atom">   4687.48422623 </i>
    <i name="e_fr_energy">   -199.01267682 </i>
    <i name="e_wo_entrp">   -198.84959898 </i>
    <i name="e_0_energy">   -198.93113790 </i>
   </energy>
  </scstep>
  <scstep>
   <time name="dav">    0.90    0.90</time>
   <time name="total">    0.94    0.94</time>
   <energy>
    <i name="e_fr_energy">   -455.23372180 </i>
    <i name="e_wo_entrp">   -455.17762966 </i>
    <i name="e_0_energy">   -455.20567573 </i>
   </energy>
  </scstep>
  <scstep>
   <time name="dav">    0.71    0.71</time>
   <time name="total">    0.75    0.75</time>
   <energy>
    <i name="e_fr_energy">   -166.22074043 </i>
    <i name="e_wo_entrp">   -166.09148099 </i>
    <i name="e_0_energy">   -166.15611071 </i>
   </energy>
  </scstep>
  <scstep>
   <time name="dav">    0.99    0.99</time>
   <time name="total">    1.03    1.04</time>
   <energy>
    <i name="e_fr_energy">   -190.12846015 </i>
    <i name="e_wo_entrp">   -190.00877422 </i>
    <i name="e_0_energy">   -190.06861718 </i>
   </energy>
  </scstep>
  <scstep>
   <time name="dav">    0.88    0.88</time>
   <time name="total">    0.93    0.93</time>
   <energy>
    <i name="e_fr_energy">   -184.04356794 </i>
    <i name="e_wo_entrp">   -183.91936063 </i>
    <i name="e_0_energy">   -183.98146428 </i>
   </energy>
  </scstep>
  <scstep>
   <time name="dav">    0.85    0.85</time>
   <time name="total">    0.89    0.89</time>
   <energy>
    <i name="e_fr_energy">   -167.57329734 </i>
    <i name="e_wo_entrp">   -167.43446849 </i>
    <i name="e_0_energy">   -167.50388292 </i>
   </energy>
  </scstep>
  <scstep>
   <time name="dav">    0.97    0.97</time>
   <time name="total">    1.01    1.02</time>
   <energy>
    <i name="e_fr_energy">   -160.39394919 </i>
    <i name="e_wo_entrp">   -160.21001363 </i>
    <i name="e_0_energy">   -160.30198141 </i>
   </energy>
  </scstep>
  <scstep>
   <time name="dav">    0.94    0.94</time>
   <time name="total">    0.99    0.99</time>
   <energy>
    <i name="e_fr_energy">   -159.07791681 </i>
    <i name="e_wo_entrp">   -158.89344364 </i>
    <i name="e_0_energy">   -158.98568023 </i>
   </energy>
  </scstep>
  <scstep>
   <time name="dav">    0.97    0.97</time>
   <time name="total">    1.02    1.02</time>
   <energy>
    <i name="e_fr_energy">   -160.34377206 </i>
    <i name="e_wo_entrp">   -160.16612684 </i>
    <i name="e_0_energy">   -160.25494945 </i>
   </energy>
  </scstep>
  <scstep>
   <time name="dav">    0.90    0.90</time>
   <time name="total">    0.95    0.95</time>
   <energy>
    <i name="e_fr_energy">   -160.54337708 </i>
    <i name="e_wo_entrp">   -160.35150915 </i>
    <i name="e_0_energy">   -160.44744312 </i>
   </energy>
  </scstep>
  <scstep>
   <time name="dav">    0.96    0.96</time>
   <time name="total">    1.01    1.01</time>
   <energy>
    <i name="e_fr_energy">   -159.14819494 </i>
    <i name="e_wo_entrp">   -158.95770407 </i>
    <i name="e_0_energy">   -159.05294950 </i>
   </energy>
  </scstep>
  <scstep>
   <time name="dav">    0.99    0.99</time>
   <time name="total">    1.04    1.04</time>
   <energy>
    <i name="e_fr_energy">   -158.77619895 </i>
    <i name="e_wo_entrp">   -158.58272999 </i>
    <i name="e_0_energy">   -158.67946447 </i>
   </energy>
  </scstep>
  <scstep>
   <time name="dav">    0.98    0.98</time>
   <time name="total">    1.03    1.03</time>
   <energy>
    <i name="e_fr_energy">   -158.42519233 </i>
    <i name="e_wo_entrp">   -158.21999849 </i>
    <i name="e_0_energy">   -158.32259541 </i>
   </energy>
  </scstep>
  <scstep>
   <time name="dav">    0.97    0.97</time>
   <time name="total">    1.01    1.01</time>
   <energy>
    <i name="e_fr_energy">   -157.84766613 </i>
    <i name="e_wo_entrp">   -157.64078359 </i>
    <i name="e_0_energy">   -157.74422486 </i>
   </energy>
  </scstep>
  <scstep>
   <time name="dav">    0.96    0.96</time>
   <time name="total">    1.01    1.01</time>
   <energy>
    <i name="e_fr_energy">   -156.47542014 </i>
    <i name="e_wo_entrp">   -156.26448595 </i>
    <i name="e_0_energy">   -156.36995305 </i>
   </energy>
  </scstep>
  <scstep>
   <time name="dav">    0.96    0.96</time>
   <time name="total">    1.01    1.01</time>
   <energy>
    <i name="e_fr_energy">   -155.54232154 </i>
    <i name="e_wo_entrp">   -155.32552133 </i>
    <i name="e_0_energy">   -155.43392143 </i>
   </energy>
  </scstep>
  <scstep>
   <time name="dav">    0.93    0.93</time>
   <time name="total">    0.98    0.98</time>
   <energy>
    <i name="e_fr_energy">   -155.19698259 </i>
    <i name="e_wo_entrp">   -154.98004895 </i>
    <i name="e_0_energy">   -155.08851577 </i>
   </energy>
  </scstep>
  <scstep>
   <time name="dav">    0.88    0.88</time>
   <time name="total">    0.93    0.93</time>
   <energy>
    <i name="e_fr_energy">   -155.18414826 </i>
    <i name="e_wo_entrp">   -154.96501124 </i>
    <i name="e_0_energy">   -155.07457975 </i>
   </energy>
  </scstep>
  <scstep>
   <time name="dav">    0.90    0.90</time>
   <time name="total">    0.95    0.95</time>
   <energy>
    <i name="e_fr_energy">   -155.16738596 </i>
    <i name="e_wo_entrp">   -154.94935559 </i>
    <i name="e_0_energy">   -155.05837078 </i>
   </energy>
  </scstep>
  <scstep>
   <time name="dav">    0.87    0.87</time>
   <time name="total">    0.92    0.92</time>
   <energy>
    <i name="e_fr_energy">   -155.14494987 </i>
    <i name="e_wo_entrp">   -154.92668926 </i>
    <i name="e_0_energy">   -155.03581957 </i>
   </energy>
  </scstep>
  <scstep>
   <time name="dav">    0.97    0.97</time>
   <time name="total">    1.02    1.02</time>
   <energy>
    <i name="e_fr_energy">   -155.11805862 </i>
    <i name="e_wo_entrp">   -154.89944909 </i>
    <i name="e_0_energy">   -155.00875385 </i>
   </energy>
  </scstep>
  <scstep>
   <time name="dav">    0.95    0.95</time>
   <time name="total">    1.00    1.00</time>
   <energy>
    <i name="e_fr_energy">   -155.11612483 </i>
    <i name="e_wo_entrp">   -154.89860992 </i>
    <i name="e_0_energy">   -155.00736737 </i>
   </energy>
  </scstep>
  <scstep>
   <time name="dav">    0.94    0.94</time>
   <time name="total">    0.98    0.98</time>
   <energy>
    <i name="e_fr_energy">   -155.11227399 </i>
    <i name="e_wo_entrp">   -154.89429218 </i>
    <i name="e_0_energy">   -155.00328308 </i>
   </energy>
  </scstep>
  <scstep>
   <time name="dav">    0.91    0.91</time>
   <time name="total">    0.96    0.96</time>
   <energy>
    <i name="e_fr_energy">   -155.11171107 </i>
    <i name="e_wo_entrp">   -154.89403900 </i>
    <i name="e_0_energy">   -155.00287503 </i>
   </energy>
  </scstep>
  <scstep>
   <time name="dav">    0.98    0.98</time>
   <time name="total">    1.02    1.03</time>
   <energy>
    <i name="e_fr_energy">   -155.11067195 </i>
    <i name="e_wo_entrp">   -154.89275595 </i>
    <i name="e_0_energy">   -155.00171395 </i>
   </energy>
  </scstep>
  <scstep>
   <time name="dav">    0.92    0.92</time>
   <time name="total">    0.97    0.97</time>
   <energy>
    <i name="e_fr_energy">   -155.11069978 </i>
    <i name="e_wo_entrp">   -154.89287687 </i>
    <i name="e_0_energy">   -155.00178832 </i>
   </energy>
  </scstep>
  <scstep>
   <time name="dav">    0.96    0.96</time>
   <time name="total">    1.01    1.01</time>
   <energy>
    <i name="e_fr_energy">   -155.11037460 </i>
    <i name="e_wo_entrp">   -154.89249644 </i>
    <i name="e_0_energy">   -155.00143552 </i>
   </energy>
  </scstep>
  <scstep>
   <time name="dav">    0.86    0.86</time>
   <time name="total">    0.91    0.91</time>
   <energy>
    <i name="e_fr_energy">   -155.11022098 </i>
    <i name="e_wo_entrp">   -154.89230795 </i>
    <i name="e_0_energy">   -155.00126446 </i>
   </energy>
  </scstep>
  <scstep>
   <time name="dav">    0.95    0.95</time>
   <time name="total">    1.00    1.00</time>
   <energy>
    <i name="e_fr_energy">   -155.10983859 </i>
    <i name="e_wo_entrp">   -154.89175591 </i>
    <i name="e_0_energy">   -155.00079725 </i>
   </energy>
  </scstep>
  <scstep>
   <time name="dav">    0.83    0.83</time>
   <time name="total">    0.88    0.88</time>
   <energy>
    <i name="e_fr_energy">   -155.10983136 </i>
    <i name="e_wo_entrp">   -154.89174576 </i>
    <i name="e_0_energy">   -155.00078856 </i>
   </energy>
  </scstep>
  <scstep>
   <time name="dav">    0.65    0.65</time>
   <time name="total">    0.70    0.70</time>
   <energy>
    <i name="e_fr_energy">   -155.10981262 </i>
    <i name="e_wo_entrp">   -154.89169138 </i>
    <i name="e_0_energy">   -155.00075200 </i>
   </energy>
  </scstep>
  <scstep>
   <time name="dav">    0.46    0.46</time>
   <time name="total">    0.48    0.48</time>
   <energy>
    <i name="alphaZ">    403.20804567 </i>
    <i name="ewald">  -4573.29736468 </i>
    <i name="hartreedc">   -952.15478799 </i>
    <i name="XCdc">   -780.60654320 </i>
    <i name="pawpsdc">   6455.71703175 </i>
    <i name="pawaedc">  -5640.63063374 </i>
    <i name="eentropy">     -0.21815310 </i>
    <i name="bandstr">    245.38836733 </i>
    <i name="atom">   4687.48422623 </i>
    <i name="e_fr_energy">   -155.10981174 </i>
    <i name="e_wo_entrp">   -154.89165864 </i>
    <i name="e_0_energy">   -155.00073519 </i>
   </energy>
  </scstep>
  <structure>
   <crystal>
    <varray name="basis" >
     <v>       8.12455788       0.06432822       0.06478265 </v>
     <v>      -0.36670328       6.55323717      -0.04244299 </v>
     <v>       3.29927849       0.95605844       6.68475471 </v>
    </varray>
    <i name="volume">    354.96572902 </i>
    <varray name="rec_basis" >
     <v>       0.12352562       0.00651131      -0.06189765 </v>
     <v>      -0.00103695       0.15240046      -0.02128463 </v>
     <v>      -0.00120368       0.00090452       0.15005884 </v>
    </varray>
   </crystal>
   <varray name="positions" >
    <v>       0.13298954       0.00433050       0.02163497 </v>
    <v>       0.57895627       0.60218622       0.01085734 </v>
    <v>       0.91282769       0.45520503       0.36421559 </v>
    <v>       0.38210436       0.24145113       0.34052954 </v>
    <v>       0.46690472       0.84042575       0.39488573 </v>
    <v>       0.69518931       0.37051785       0.78714756 </v>
    <v>       0.47031207       0.23919158       0.65975225 </v>
    <v>       0.93751258       0.93145806       0.43459711 </v>
    <v>       0.68758873       0.95075543      -0.00096785 </v>
    <v>       0.37454097       0.84288621       0.74275317 </v>
    <v>       0.29227920       0.79442799       0.24906671 </v>
    <v>       0.71453600       0.06922039       0.42210646 </v>
    <v>       0.17818598       0.37390952       0.80227981 </v>
    <v>       0.89718688       0.70731668       0.09762125 </v>
    <v>       0.08147720       0.62356191       0.68409667 </v>
    <v>       0.28336738       0.22334000       0.11911249 </v>
    <v>       0.59336075       0.55209760       0.45067089 </v>
    <v>       0.73646976       0.29841394       0.11376414 </v>
    <v>       0.10329776       0.07011280       0.63658372 </v>
    <v>       0.23452685       0.60364640       0.02276746 </v>
   </varray>
  </structure>
  <varray name="forces" >
   <v>      -0.65611694      -0.02804683       0.15212958 </v>
   <v>      -0.14420162      -0.17469995       0.44607898 </v>
   <v>       0.09575723      -0.35945853      -0.35467198 </v>
   <v>       0.66898086       0.24135333       0.79213892 </v>
   <v>      -0.56048237       1.36395833      -0.34395830 </v>
   <v>       0.66439155      -0.20583169      -0.01300556 </v>
   <v>      -0.08624251      -1.04370910       0.36808879 </v>
   <v>       0.72799472      -0.53933548       0.47975958 </v>
   <v>       0.27858375       0.98058939       0.08050928 </v>
   <v>      -0.02785153      -0.82937356       0.88348198 </v>
   <v>      -1.34248481      -0.06744289      -0.67245682 </v>
   <v>       0.30205785       0.26481796      -0.90304496 </v>
   <v>      -0.65049083       0.11305214       0.28106833 </v>
   <v>      -0.33901106      -0.54294511       0.58541245 </v>
   <v>      -0.45086640       1.07990775      -0.33967731 </v>
   <v>       0.17580703      -0.22492912      -0.44202403 </v>
   <v>       0.85806581      -0.16378220      -0.40028643 </v>
   <v>      -0.45985415       0.13132434      -0.18094639 </v>
   <v>       1.00584988      -0.31172928      -0.25787561 </v>
   <v>      -0.05988646       0.31628050      -0.16072051 </v>
  </varray>
  <varray name="stress" >
   <v>    -239.22613312     -11.83488309      19.92560399 </v>
   <v>     -11.83488314    -238.42540478      -9.56462115 </v>
   <v>      19.92560396      -9.56462110    -248.34470687 </v>
  </varray>
  <energy>
   <i name="e_fr_energy">   -155.10981174 </i>
   <i name="e_wo_entrp">   -155.00073519 </i>
   <i name="e_0_energy">     -0.21815310 </i>
  </energy>
  <time name="totalsc">   31.15   31.19</time>
 </calculation>
 <calculation>
  <scstep>
   <time name="dav">    0.57    0.57</time>
   <time name="total">    0.61    0.61</time>
   <energy>
    <i name="alphaZ">    459.47243195 </i>
    <i name="ewald">  -4733.55421374 </i>
    <i name="hartreedc">  -1029.00977927 </i>
    <i name="XCdc">   -772.57630511 </i>
    <i name="pawpsdc">   6455.52871363 </i>
    <i name="pawaedc">  -5640.43713249 </i>
    <i name="eentropy">     -0.11603436 </i>
    <i name="bandstr">    399.86662702 </i>
    <i name="atom">   4687.48422623 </i>
    <i name="e_fr_energy">   -173.34146614 </i>
    <i name="e_wo_entrp">   -173.22543178 </i>
    <i name="e_0_energy">   -173.28344896 </i>
   </energy>
  </scstep>
  <scstep>
   <time name="dav">    0.91    0.91</time>
   <time name="total">    0.96    0.96</time>
   <energy>
    <i name="e_fr_energy">   -332.30274016 </i>
    <i name="e_wo_entrp">   -332.22912418 </i>
    <i name="e_0_energy">   -332.26593217 </i>
   </energy>
  </scstep>
  <scstep>
   <time name="dav">    0.84    0.84</time>
   <time name="total">    0.89    0.89</time>
   <energy>
    <i name="e_fr_energy">   -250.81232643 </i>
    <i name="e_wo_entrp">   -250.70271326 </i>
    <i name="e_0_energy">   -250.75751985 </i>
   </energy>
  </scstep>
  <scstep>
   <time name="dav">    0.89    0.89</time>
   <time name="total">    0.94    0.94</time>
   <energy>
    <i name="e_fr_energy">   -170.68065838 </i>
    <i name="e_wo_entrp">   -170.54622824 </i>
    <i name="e_0_energy">   -170.61344331 </i>
   </energy>
  </scstep>
  <scstep>
   <time name="dav">    0.94    0.94</time>
   <time name="total">    0.99    0.99</time>
   <energy>
    <i name="e_fr_energy">   -161.51637969 </i>
    <i name="e_wo_entrp">   -161.37182390 </i>
    <i name="e_0_energy">   -161.44410179 </i>
   </energy>
  </scstep>
  <scstep>
   <time name="dav">    0.95    0.95</time>
   <time name="total">    0.99    1.00</time>
   <energy>
    <i name="e_fr_energy">   -161.25579075 </i>
    <i name="e_wo_entrp">   -161.09113069 </i>
    <i name="e_0_energy">   -161.17346072 </i>
   </energy>
  </scstep>
  <scstep>
   <time name="dav">    0.95    0.95</time>
   <time name="total">    1.00    1.00</time>
   <energy>
    <i name="e_fr_energy">   -161.41750656 </i>
    <i name="e_wo_entrp">   -161.25012998 </i>
    <i name="e_0_energy">   -161.33381827 </i>
   </energy>
  </scstep>
  <scstep>
   <time name="dav">    0.94    0.94</time>
   <time name="total">    0.99    0.99</time>
   <energy>
    <i name="e_fr_energy">   -159.98332444 </i>
    <i name="e_wo_entrp">   -159.82221687 </i>
    <i name="e_0_energy">   -159.90277065 </i>
   </energy>
  </scstep>
  <scstep>
   <time name="dav">    0.99    0.99</time>
   <time name="total">    1.03    1.03</time>
   <energy>
    <i name="e_fr_energy">   -158.75600639 </i>
    <i name="e_wo_entrp">   -158.57655423 </i>
    <i name="e_0_energy">   -158.66628031 </i>
   </energy>
  </scstep>
  <scstep>
   <time name="dav">    0.96    0.96</time>
   <time name="total">    1.00    1.00</time>
   <energy>
    <i name="e_fr_energy">   -159.07626359 </i>
    <i name="e_wo_entrp">   -158.90026522 </i>
    <i name="e_0_energy">   -158.98826440 </i>
   </energy>
  </scstep>
  <scstep>
   <time name="dav">    0.98    0.98</time>
   <time name="total">    1.02    1.02</time>
   <energy>
    <i name="e_fr_energy">   -158.80990224 </i>
    <i name="e_wo_entrp">   -158.62948226 </i>
    <i name="e_0_energy">   -158.71969225 </i>
   </energy>
  </scstep>
  <scstep>
   <time name="dav">    0.98    0.98</time>
   <time name="total">    1.03    1.03</time>
   <energy>
    <i name="e_fr_energy">   -158.67659035 </i>
    <i name="e_wo_entrp">   -158.49309100 </i>
    <i name="e_0_energy">   -158.58484067 </i>
   </energy>
  </scstep>
  <scstep>
   <time name="dav">    0.97    0.97</time>
   <time name="total">    1.02    1.02</time>
   <energy>
    <i name="e_fr_energy">   -158.70486828 </i>
    <i name="e_wo_entrp">   -158.52388962 </i>
    <i name="e_0_energy">   -158.61437895 </i>
   </energy>
  </scstep>
  <scstep>
   <time name="dav">    0.96    0.96</time>
   <time name="total">    1.00    1.01</time>
   <energy>
    <i name="e_fr_energy">   -158.66004099 </i>
    <i name="e_wo_entrp">   -158.47755064 </i>
    <i name="e_0_energy">   -158.56879582 </i>
   </energy>
  </scstep>
  <scstep>
   <time name="dav">    0.85    0.85</time>
   <time name="total">    0.89    0.90</time>
   <energy>
    <i name="e_fr_energy">   -158.64977697 </i>
    <i name="e_wo_entrp">   -158.46706097 </i>
    <i name="e_0_energy">   -158.55841897 </i>
   </energy>
  </scstep>
  <scstep>
   <time name="dav">    0.88    0.88</time>
   <time name="total">    0.93    0.93</time>
   <energy>
    <i name="e_fr_energy">   -158.64885725 </i>
    <i name="e_wo_entrp">   -158.46522498 </i>
    <i name="e_0_energy">   -158.55704112 </i>
   </energy>
  </scstep>
  <scstep>
   <time name="dav">    0.90    0.90</time>
   <time name="total">    0.94    0.94</time>
   <energy>
    <i name="e_fr_energy">   -158.64778415 </i>
    <i name="e_wo_entrp">   -158.46472425 </i>
    <i name="e_0_energy">   -158.55625420 </i>
   </energy>
  </scstep>
  <scstep>
   <time name="dav">    0.85    0.85</time>
   <time name="total">    0.90    0.90</time>
   <energy>
    <i name="e_fr_energy">   -158.64728357 </i>
    <i name="e_wo_entrp">   -158.46441675 </i>
    <i name="e_0_energy">   -158.55585016 </i>
   </energy>
  </scstep>
  <scstep>
   <time name="dav">    0.91    0.91</time>
   <time name="total">    0.95    0.95</time>
   <energy>
    <i name="e_fr_energy">   -158.64693015 </i>
    <i name="e_wo_entrp">   -158.46375702 </i>
    <i name="e_0_energy">   -158.55534359 </i>
   </energy>
  </scstep>
  <scstep>
   <time name="dav">    0.94    0.94</time>
   <time name="total">    0.98    0.98</time>
   <energy>
    <i name="e_fr_energy">   -158.64631936 </i>
    <i name="e_wo_entrp">   -158.46334640 </i>
    <i name="e_0_energy">   -158.55483288 </i>
   </energy>
  </scstep>
  <scstep>
   <time name="dav">    0.94    0.94</time>
   <time name="total">    0.98    0.98</time>
   <energy>
    <i name="e_fr_energy">   -158.64587436 </i>
    <i name="e_wo_entrp">   -158.46293744 </i>
    <i name="e_0_energy">   -158.55440590 </i>
   </energy>
  </scstep>
  <scstep>
   <time name="dav">    0.96    0.96</time>
   <time name="total">    1.00    1.00</time>
   <energy>
    <i name="e_fr_energy">   -158.64546283 </i>
    <i name="e_wo_entrp">   -158.46240719 </i>
    <i name="e_0_energy">   -158.55393501 </i>
   </energy>
  </scstep>
  <scstep>
   <time name="dav">    0.81    0.81</time>
   <time name="total">    0.86    0.86</time>
   <energy>
    <i name="e_fr_energy">   -158.64543598 </i>
    <i name="e_wo_entrp">   -158.46245630 </i>
    <i name="e_0_energy">   -158.55394614 </i>
   </energy>
  </scstep>
  <scstep>
   <time name="dav">    0.87    0.87</time>
   <time name="total">    0.92    0.92</time>
   <energy>
    <i name="e_fr_energy">   -158.64534897 </i>
    <i name="e_wo_entrp">   -158.46229593 </i>
    <i name="e_0_energy">   -158.55382245 </i>
   </energy>
  </scstep>
  <scstep>
   <time name="dav">    0.82    0.82</time>
   <time name="total">    0.86    0.87</time>
   <energy>
    <i name="e_fr_energy">   -158.64532804 </i>
    <i name="e_wo_entrp">   -158.46226786 </i>
    <i name="e_0_energy">   -158.55379795 </i>
   </energy>
  </scstep>
  <scstep>
   <time name="dav">    0.70    0.70</time>
   <time name="total">    0.74    0.74</time>
   <energy>
    <i name="e_fr_energy">   -158.64531208 </i>
    <i name="e_wo_entrp">   -158.46224921 </i>
    <i name="e_0_energy">   -158.55378065 </i>
   </energy>
  </scstep>
  <scstep>
   <time name="dav">    0.47    0.47</time>
   <time name="total">    0.49    0.49</time>
   <energy>
    <i name="alphaZ">    459.47243195 </i>
    <i name="ewald">  -4733.55421374 </i>
    <i name="hartreedc">   -933.51289963 </i>
    <i name="XCdc">   -775.44292246 </i>
    <i name="pawpsdc">   7306.67676046 </i>
    <i name="pawaedc">  -6498.44561825 </i>
    <i name="eentropy">     -0.18306093 </i>
    <i name="bandstr">    328.85998157 </i>
    <i name="atom">   4687.48422623 </i>
    <i name="e_fr_energy">   -158.64531478 </i>
    <i name="e_wo_entrp">   -158.46225385 </i>
    <i name="e_0_energy">   -158.55378432 </i>
   </energy>
  </scstep>
  <structure>
   <crystal>
    <varray name="basis" >
     <v>       7.76998882       0.03681336       0.03707342 </v>
     <v>      -0.37060958       6.26482908      -0.02428902 </v>
     <v>       3.13174438       0.91937389       6.40911145 </v>
    </varray>
    <i name="volume">    311.49864045 </i>
    <varray name="rec_basis" >
     <v>       0.12897109       0.00738113      -0.06407916 </v>
     <v>      -0.00064802       0.15949546      -0.02256265 </v>
     <v>      -0.00074849       0.00056175       0.15631303 </v>
    </varray>
   </crystal>
   <varray name="positions" >
    <v>       0.13580521      -0.00161455       0.03059955 </v>
    <v>       0.57860442       0.60138985       0.01553017 </v>
    <v>       0.90664937       0.46208850       0.36195129 </v>
    <v>       0.38388224       0.23649601       0.33465815 </v>
    <v>       0.47275239       0.84298408       0.39847765 </v>
    <v>       0.69071951       0.37255965       0.78898806 </v>
    <v>       0.47035210       0.24500257       0.65320517 </v>
    <v>       0.93985816       0.93770359       0.42323723 </v>
    <v>       0.68233563       0.94132338       0.00925625 </v>
    <v>       0.38331801       0.85446611       0.72487870 </v>
    <v>       0.29872944       0.79972142       0.24483946 </v>
    <v>       0.69819127       0.06104200       0.42898486 </v>
    <v>       0.18502293       0.37144063       0.79726516 </v>
    <v>       0.90357853       0.71064525       0.09980113 </v>
    <v>       0.08744490       0.61822571       0.68722378 </v>
    <v>       0.27978429       0.21327956       0.12540229 </v>
    <v>       0.59347775       0.54550236       0.45113655 </v>
    <v>       0.72658758       0.29780427       0.11854297 </v>
    <v>       0.10627605       0.07449966       0.63522392 </v>
    <v>       0.23024423       0.60989495       0.02427268 </v>
   </varray>
  </structure>
  <varray name="forces" >
   <v>      -1.18967436       0.21485862      -0.36417026 </v>
   <v>      -0.25822952      -0.16031329      -0.10918598 </v>
   <v>       0.97818858      -0.81472837      -0.14791296 </v>
   <v>       0.64384874       0.77627415       1.05375824 </v>
   <v>      -1.37938095       1.10283811      -0.55648039 </v>
   <v>       0.91741966      -0.36194956      -0.22595299 </v>
   <v>       0.33923590      -1.61962402       0.90608728 </v>
   <v>       1.15583502      -1.15609145       1.32321190 </v>
   <v>       0.20612002       1.63531797      -0.84606418 </v>
   <v>      -0.00182526      -1.41232217       1.91412365 </v>
   <v>      -1.73591035      -0.41497473      -0.23375045 </v>
   <v>       1.49815514       0.88721165      -1.41641005 </v>
   <v>      -1.11490115       0.29720113       0.62937635 </v>
   <v>      -0.90882695      -0.80269388       0.54995545 </v>
   <v>      -1.29572110       1.33324027      -0.63042917 </v>
   <v>       0.16939554       0.36793645      -0.74443344 </v>
   <v>       0.69696895       0.48920779      -0.46609323 </v>
   <v>       0.38996828       0.12279156      -0.43315830 </v>
   <v>       0.60376220      -0.51625185      -0.04491159 </v>
   <v>       0.28557163       0.03207163      -0.15755989 </v>
  </varray>
  <varray name="stress" >
   <v>     -82.19516780      -3.88417220      26.98899097 </v>
   <v>      -3.88417208     -88.40248735     -16.33191085 </v>
   <v>      26.98899091     -16.33191092     -99.90150083 </v>
  </varray>
  <energy>
   <i name="e_fr_energy">   -158.64531478 </i>
   <i name="e_wo_entrp">   -158.55378432 </i>
   <i name="e_0_energy">     -0.18306093 </i>
  </energy>
  <time name="totalsc">   26.09   26.11</time>
 </calculation>
 <calculation>
  <scstep>
   <time name="dav">    0.56    0.56</time>
   <time name="total">    0.61    0.61</time>
   <energy>
    <i name="alphaZ">    463.54779205 </i>
    <i name="ewald">  -4743.80632253 </i>
    <i name="hartreedc">   -939.11717745 </i>
    <i name="XCdc">   -774.92554909 </i>
    <i name="pawpsdc">   7306.04207929 </i>
    <i name="pawaedc">  -6497.81318131 </i>
    <i name="eentropy">     -0.17873624 </i>
    <i name="bandstr">    340.04049724 </i>
    <i name="atom">   4687.48422623 </i>
    <i name="e_fr_energy">   -158.72637182 </i>
    <i name="e_wo_entrp">   -158.54763557 </i>
    <i name="e_0_energy">   -158.63700369 </i>
   </energy>
  </scstep>
  <scstep>
   <time name="dav">    0.97    0.97</time>
   <time name="total">    1.01    1.01</time>
   <energy>
    <i name="e_fr_energy">   -162.79485766 </i>
    <i name="e_wo_entrp">   -162.65646237 </i>
    <i name="e_0_energy">   -162.72566002 </i>
   </energy>
  </scstep>
  <scstep>
   <time name="dav">    0.98    0.98</time>
   <time name="total">    1.03    1.03</time>
   <energy>
    <i name="e_fr_energy">   -158.58239129 </i>
    <i name="e_wo_entrp">   -158.40576304 </i>
    <i name="e_0_energy">   -158.49407716 </i>
   </energy>
  </scstep>
  <scstep>
   <time name="dav">    0.83    0.83</time>
   <time name="total">    0.88    0.88</time>
   <energy>
    <i name="e_fr_energy">   -158.66928268 </i>
    <i name="e_wo_entrp">   -158.48774838 </i>
    <i name="e_0_energy">   -158.57851553 </i>
   </energy>
  </scstep>
  <scstep>
   <time name="dav">    0.92    0.92</time>
   <time name="total">    0.96    0.96</time>
   <energy>
    <i name="e_fr_energy">   -158.68792967 </i>
    <i name="e_wo_entrp">   -158.50810733 </i>
    <i name="e_0_energy">   -158.59801850 </i>
   </energy>
  </scstep>
  <scstep>
   <time name="dav">    0.94    0.95</time>
   <time name="total">    0.99    0.99</time>
   <energy>
    <i name="e_fr_energy">   -158.67151341 </i>
    <i name="e_wo_entrp">   -158.49068281 </i>
    <i name="e_0_energy">   -158.58109811 </i>
   </energy>
  </scstep>
  <scstep>
   <time name="dav">    0.97    0.97</time>
   <time name="total">    1.02    1.02</time>
   <energy>
    <i name="e_fr_energy">   -158.66665148 </i>
    <i name="e_wo_entrp">   -158.48630662 </i>
    <i name="e_0_energy">   -158.57647905 </i>
   </energy>
  </scstep>
  <scstep>
   <time name="dav">    0.94    0.94</time>
   <time name="total">    0.98    0.98</time>
   <energy>
    <i name="e_fr_energy">   -158.66298122 </i>
    <i name="e_wo_entrp">   -158.48229535 </i>
    <i name="e_0_energy">   -158.57263828 </i>
   </energy>
  </scstep>
  <scstep>
   <time name="dav">    0.96    0.96</time>
   <time name="total">    1.00    1.00</time>
   <energy>
    <i name="e_fr_energy">   -158.66079845 </i>
    <i name="e_wo_entrp">   -158.48012716 </i>
    <i name="e_0_energy">   -158.57046281 </i>
   </energy>
  </scstep>
  <scstep>
   <time name="dav">    0.85    0.85</time>
   <time name="total">    0.89    0.89</time>
   <energy>
    <i name="e_fr_energy">   -158.66068282 </i>
    <i name="e_wo_entrp">   -158.48005454 </i>
    <i name="e_0_energy">   -158.57036868 </i>
   </energy>
  </scstep>
  <scstep>
   <time name="dav">    0.88    0.89</time>
   <time name="total">    0.93    0.93</time>
   <energy>
    <i name="e_fr_energy">   -158.66057489 </i>
    <i name="e_wo_entrp">   -158.47980624 </i>
    <i name="e_0_energy">   -158.57019056 </i>
   </energy>
  </scstep>
  <scstep>
   <time name="dav">    0.83    0.83</time>
   <time name="total">    0.87    0.87</time>
   <energy>
    <i name="e_fr_energy">   -158.66047624 </i>
    <i name="e_wo_entrp">   -158.47984224 </i>
    <i name="e_0_energy">   -158.57015924 </i>
   </energy>
  </scstep>
  <scstep>
   <time name="dav">    0.90    0.90</time>
   <time name="total">    0.95    0.95</time>
   <energy>
    <i name="e_fr_energy">   -158.66051476 </i>
    <i name="e_wo_entrp">   -158.47988808 </i>
    <i name="e_0_energy">   -158.57020142 </i>
   </energy>
  </scstep>
  <scstep>
   <time name="dav">    0.85    0.85</time>
   <time name="total">    0.89    0.89</time>
   <energy>
    <i name="e_fr_energy">   -158.66042659 </i>
    <i name="e_wo_entrp">   -158.47976253 </i>
    <i name="e_0_energy">   -158.57009456 </i>
   </energy>
  </scstep>
  <scstep>
   <time name="dav">    0.78    0.78</time>
   <time name="total">    0.82    0.82</time>
   <energy>
    <i name="e_fr_energy">   -158.66042743 </i>
    <i name="e_wo_entrp">   -158.47974797 </i>
    <i name="e_0_energy">   -158.57008770 </i>
   </energy>
  </scstep>
  <scstep>
   <time name="dav">    0.46    0.46</time>
   <time name="total">    0.48    0.48</time>
   <energy>
    <i name="alphaZ">    463.54779205 </i>
    <i name="ewald">  -4743.80632253 </i>
    <i name="hartreedc">   -933.07460192 </i>
    <i name="XCdc">   -775.09806778 </i>
    <i name="pawpsdc">   7377.19582800 </i>
    <i name="pawaedc">  -6569.47366758 </i>
    <i name="eentropy">     -0.18067082 </i>
    <i name="bandstr">    334.74506293 </i>
    <i name="atom">   4687.48422623 </i>
    <i name="e_fr_energy">   -158.66042142 </i>
    <i name="e_wo_entrp">   -158.47975061 </i>
    <i name="e_0_energy">   -158.57008601 </i>
   </energy>
  </scstep>
  <structure>
   <crystal>
    <varray name="basis" >
     <v>       7.74657819       0.03499668       0.03524390 </v>
     <v>      -0.37086750       6.24578677      -0.02309039 </v>
     <v>       3.12068284       0.91695178       6.39091194 </v>
    </varray>
    <i name="volume">    308.76004661 </i>
    <varray name="rec_basis" >
     <v>       0.12934784       0.00744307      -0.06422848 </v>
     <v>      -0.00061972       0.15998739      -0.02265198 </v>
     <v>      -0.00071555       0.00053699       0.15674455 </v>
    </varray>
   </crystal>
   <varray name="positions" >
    <v>       0.13600033      -0.00202492       0.03121869 </v>
    <v>       0.57858127       0.60133460       0.01585201 </v>
    <v>       0.90622453       0.46256271       0.36179248 </v>
    <v>       0.38400193       0.23615427       0.33425518 </v>
    <v>       0.47315718       0.84316209       0.39872613 </v>
    <v>       0.69041238       0.37269962       0.78911324 </v>
    <v>       0.47035449       0.24540426       0.65275329 </v>
    <v>       0.94001827       0.93813600       0.42245447 </v>
    <v>       0.68197396       0.94067018       0.00996057 </v>
    <v>       0.38392103       0.85526878       0.72364812 </v>
    <v>       0.29917428       0.80008878       0.24454916 </v>
    <v>       0.69706431       0.06047292       0.42945557 </v>
    <v>       0.18549227       0.37127180       0.79692211 </v>
    <v>       0.90402062       0.71087665       0.09995237 </v>
    <v>       0.08785585       0.61785832       0.68744168 </v>
    <v>       0.27953649       0.21258345       0.12583624 </v>
    <v>       0.59348429       0.54504671       0.45116981 </v>
    <v>       0.72590747       0.29775969       0.11886950 </v>
    <v>       0.10648209       0.07480349       0.63513030 </v>
    <v>       0.22995097       0.61032561       0.02437407 </v>
   </varray>
  </structure>
  <varray name="forces" >
   <v>      -1.24332774       0.24170229      -0.43124667 </v>
   <v>      -0.26920918      -0.15922547      -0.15764831 </v>
   <v>       1.04912412      -0.85354327      -0.12422695 </v>
   <v>       0.63220059       0.81613209       1.08001782 </v>
   <v>      -1.45294695       1.05007285      -0.57877015 </v>
   <v>       0.93973312      -0.37504481      -0.24311788 </v>
   <v>       0.37256068      -1.64943352       0.95333702 </v>
   <v>       1.17972042      -1.19122061       1.40269623 </v>
   <v>       0.20209852       1.68563830      -0.93151251 </v>
   <v>      -0.00896985      -1.45846428       2.02893193 </v>
   <v>      -1.75258376      -0.44773329      -0.18593715 </v>
   <v>       1.62519148       0.94623807      -1.45858032 </v>
   <v>      -1.15157763       0.31385509       0.65607140 </v>
   <v>      -0.96620335      -0.82324556       0.52909910 </v>
   <v>      -1.36943902       1.35036132      -0.64941091 </v>
   <v>       0.17716539       0.44442904      -0.77547975 </v>
   <v>       0.67744062       0.54606666      -0.46716327 </v>
   <v>       0.47458951       0.11972776      -0.45995123 </v>
   <v>       0.55888553      -0.54059618      -0.02666336 </v>
   <v>       0.32554749      -0.01571649      -0.16044506 </v>
  </varray>
  <varray name="stress" >
   <v>     -67.36931812      -3.02312981      27.23282550 </v>
   <v>      -3.02312977     -73.99960907     -16.72041108 </v>
   <v>      27.23282540     -16.72041105     -85.71849134 </v>
  </varray>
  <energy>
   <i name="e_fr_energy">   -158.66042142 </i>
   <i name="e_wo_entrp">   -158.57008601 </i>
   <i name="e_0_energy">     -0.18067082 </i>
  </energy>
  <time name="totalsc">   15.48   15.50</time>
 </calculation>
 <calculation>
  <scstep>
   <time name="dav">    0.56    0.56</time>
   <time name="total">    0.61    0.61</time>
   <energy>
    <i name="alphaZ">    487.15032695 </i>
    <i name="ewald">  -4864.11575711 </i>
    <i name="hartreedc">   -922.12049933 </i>
    <i name="XCdc">   -772.14035015 </i>
    <i name="pawpsdc">   7377.30668060 </i>
    <i name="pawaedc">  -6569.58278388 </i>
    <i name="eentropy">     -0.15687835 </i>
    <i name="bandstr">    412.68613858 </i>
    <i name="atom">   4687.48422623 </i>
    <i name="e_fr_energy">   -163.48889646 </i>
    <i name="e_wo_entrp">   -163.33201811 </i>
    <i name="e_0_energy">   -163.41045729 </i>
   </energy>
  </scstep>
  <scstep>
   <time name="dav">    0.92    0.92</time>
   <time name="total">    0.97    0.97</time>
   <energy>
    <i name="e_fr_energy">   -195.21216936 </i>
    <i name="e_wo_entrp">   -195.10045644 </i>
    <i name="e_0_energy">   -195.15631290 </i>
   </energy>
  </scstep>
  <scstep>
   <time name="dav">    0.91    0.91</time>
   <time name="total">    0.96    0.96</time>
   <energy>
    <i name="e_fr_energy">   -162.07778726 </i>
    <i name="e_wo_entrp">   -161.92282917 </i>
    <i name="e_0_energy">   -162.00030822 </i>
   </energy>
  </scstep>
  <scstep>
   <time name="dav">    0.96    0.96</time>
   <time name="total">    1.01    1.01</time>
   <energy>
    <i name="e_fr_energy">   -162.80637508 </i>
    <i name="e_wo_entrp">   -162.63702459 </i>
    <i name="e_0_energy">   -162.72169983 </i>
   </energy>
  </scstep>
  <scstep>
   <time name="dav">    0.96    0.96</time>
   <time name="total">    1.00    1.00</time>
   <energy>
    <i name="e_fr_energy">   -162.40112088 </i>
    <i name="e_wo_entrp">   -162.23244676 </i>
    <i name="e_0_energy">   -162.31678382 </i>
   </energy>
  </scstep>
  <scstep>
   <time name="dav">    0.95    0.95</time>
   <time name="total">    1.00    1.00</time>
   <energy>
    <i name="e_fr_energy">   -162.11619860 </i>
    <i name="e_wo_entrp">   -161.94416082 </i>
    <i name="e_0_energy">   -162.03017971 </i>
   </energy>
  </scstep>
  <scstep>
   <time name="dav">    0.98    0.98</time>
   <time name="total">    1.02    1.02</time>
   <energy>
    <i name="e_fr_energy">   -162.19148395 </i>
    <i name="e_wo_entrp">   -162.02862682 </i>
    <i name="e_0_energy">   -162.11005539 </i>
   </energy>
  </scstep>
  <scstep>
   <time name="dav">    0.96    0.96</time>
   <time name="total">    1.01    1.01</time>
   <energy>
    <i name="e_fr_energy">   -161.97599555 </i>
    <i name="e_wo_entrp">   -161.80500831 </i>
    <i name="e_0_energy">   -161.89050193 </i>
   </energy>
  </scstep>
  <scstep>
   <time name="dav">    0.96    0.96</time>
   <time name="total">    1.00    1.01</time>
   <energy>
    <i name="e_fr_energy">   -161.95332131 </i>
    <i name="e_wo_entrp">   -161.78494325 </i>
    <i name="e_0_energy">   -161.86913228 </i>
   </energy>
  </scstep>
  <scstep>
   <time name="dav">    0.98    0.98</time>
   <time name="total">    1.02    1.02</time>
   <energy>
    <i name="e_fr_energy">   -161.90340650 </i>
    <i name="e_wo_entrp">   -161.73100655 </i>
    <i name="e_0_energy">   -161.81720652 </i>
   </energy>
  </scstep>
  <scstep>
   <time name="dav">    0.98    0.98</time>
   <time name="total">    1.03    1.03</time>
   <energy>
    <i name="e_fr_energy">   -161.88390160 </i>
    <i name="e_wo_entrp">   -161.71127696 </i>
    <i name="e_0_energy">   -161.79758928 </i>
   </energy>
  </scstep>
  <scstep>
   <time name="dav">    0.93    0.93</time>
   <time name="total">    0.97    0.97</time>
   <energy>
    <i name="e_fr_energy">   -161.87527250 </i>
    <i name="e_wo_entrp">   -161.70209035 </i>
    <i name="e_0_energy">   -161.78868143 </i>
   </energy>
  </scstep>
  <scstep>
   <time name="dav">    0.97    0.98</time>
   <time name="total">    1.02    1.02</time>
   <energy>
    <i name="e_fr_energy">   -161.86817544 </i>
    <i name="e_wo_entrp">   -161.69453514 </i>
    <i name="e_0_energy">   -161.78135529 </i>
   </energy>
  </scstep>
  <scstep>
   <time name="dav">    0.82    0.83</time>
   <time name="total">    0.87    0.89</time>
   <energy>
    <i name="e_fr_energy">   -161.86818585 </i>
    <i name="e_wo_entrp">   -161.69433096 </i>
    <i name="e_0_energy">   -161.78125841 </i>
   </energy>
  </scstep>
  <scstep>
   <time name="dav">    0.85    0.85</time>
   <time name="total">    0.90    0.90</time>
   <energy>
    <i name="e_fr_energy">   -161.86754179 </i>
    <i name="e_wo_entrp">   -161.69363121 </i>
    <i name="e_0_energy">   -161.78058650 </i>
   </energy>
  </scstep>
  <scstep>
   <time name="dav">    0.82    0.82</time>
   <time name="total">    0.87    0.87</time>
   <energy>
    <i name="e_fr_energy">   -161.86742802 </i>
    <i name="e_wo_entrp">   -161.69363061 </i>
    <i name="e_0_energy">   -161.78052932 </i>
   </energy>
  </scstep>
  <scstep>
   <time name="dav">    0.98    0.98</time>
   <time name="total">    1.02    1.02</time>
   <energy>
    <i name="e_fr_energy">   -161.86707420 </i>
    <i name="e_wo_entrp">   -161.69311803 </i>
    <i name="e_0_energy">   -161.78009611 </i>
   </energy>
  </scstep>
  <scstep>
   <time name="dav">    0.88    0.88</time>
   <time name="total">    0.93    0.93</time>
   <energy>
    <i name="e_fr_energy">   -161.86701753 </i>
    <i name="e_wo_entrp">   -161.69302371 </i>
    <i name="e_0_energy">   -161.78002062 </i>
   </energy>
  </scstep>
  <scstep>
   <time name="dav">    0.78    0.78</time>
   <time name="total">    0.83    0.83</time>
   <energy>
    <i name="e_fr_energy">   -161.86700437 </i>
    <i name="e_wo_entrp">   -161.69300872 </i>
    <i name="e_0_energy">   -161.78000655 </i>
   </energy>
  </scstep>
  <scstep>
   <time name="dav">    0.59    0.60</time>
   <time name="total">    0.64    0.64</time>
   <energy>
    <i name="e_fr_energy">   -161.86699345 </i>
    <i name="e_wo_entrp">   -161.69294762 </i>
    <i name="e_0_energy">   -161.77997053 </i>
   </energy>
  </scstep>
  <scstep>
   <time name="dav">    0.45    0.45</time>
   <time name="total">    0.47    0.47</time>
   <energy>
    <i name="alphaZ">    487.15032695 </i>
    <i name="ewald">  -4864.11575711 </i>
    <i name="hartreedc">   -878.29959869 </i>
    <i name="XCdc">   -773.24744309 </i>
    <i name="pawpsdc">   7540.90511369 </i>
    <i name="pawaedc">  -6735.19661747 </i>
    <i name="eentropy">     -0.17403577 </i>
    <i name="bandstr">    373.62679164 </i>
    <i name="atom">   4687.48422623 </i>
    <i name="e_fr_energy">   -161.86699362 </i>
    <i name="e_wo_entrp">   -161.69295785 </i>
    <i name="e_0_energy">   -161.77997573 </i>
   </energy>
  </scstep>
  <structure>
   <crystal>
    <varray name="basis" >
     <v>       7.65089133       0.03394554       0.13304123 </v>
     <v>      -0.36675700       6.15241877      -0.07731021 </v>
     <v>       3.16346804       0.85196847       6.28528315 </v>
    </varray>
    <i name="volume">    293.80055798 </i>
    <varray name="rec_basis" >
     <v>       0.13184304       0.00701361      -0.06730908 </v>
     <v>      -0.00034040       0.16224321      -0.02182070 </v>
     <v>      -0.00279492       0.00184717       0.16025816 </v>
    </varray>
   </crystal>
   <varray name="positions" >
    <v>       0.12926345       0.00219135       0.02519341 </v>
    <v>       0.57756233       0.60065890       0.01315892 </v>
    <v>       0.91437632       0.45429174       0.36168338 </v>
    <v>       0.38421272       0.24250359       0.34369755 </v>
    <v>       0.46485874       0.85024841       0.39357222 </v>
    <v>       0.69784425       0.36958295       0.78677680 </v>
    <v>       0.46923257       0.23086211       0.66152132 </v>
    <v>       0.94156714       0.92618538       0.43595562 </v>
    <v>       0.68810746       0.95669136       0.00005929 </v>
    <v>       0.37465637       0.83899569       0.74372999 </v>
    <v>       0.28738120       0.79533676       0.24477173 </v>
    <v>       0.71635048       0.07137122       0.41704306 </v>
    <v>       0.17486282       0.37369945       0.80319428 </v>
    <v>       0.89456439       0.70344142       0.10284029 </v>
    <v>       0.08029770       0.62985524       0.68195967 </v>
    <v>       0.28411332       0.21995914       0.11833483 </v>
    <v>       0.59878750       0.55160872       0.44778370 </v>
    <v>       0.73334459       0.29926792       0.11405949 </v>
    <v>       0.10851632       0.06949820       0.63538638 </v>
    <v>       0.23371433       0.60820545       0.02275304 </v>
   </varray>
  </structure>
  <varray name="forces" >
   <v>      -1.73775752       0.62353287       0.08407666 </v>
   <v>      -0.26664972      -0.05849714      -0.08060791 </v>
   <v>       1.21584858      -0.81121579      -0.01988995 </v>
   <v>       0.30746275       1.07608213       0.79733222 </v>
   <v>      -0.44792909       1.02164482      -0.15807097 </v>
   <v>       1.09062402      -0.35839026      -0.46453959 </v>
   <v>      -0.34647238      -0.87940616       0.72292252 </v>
   <v>       0.65404190      -1.02104788       1.48069429 </v>
   <v>       0.46333368       1.38316595      -0.97259005 </v>
   <v>       0.72135014      -1.02762747       0.46333472 </v>
   <v>      -1.33785860      -0.14578742       0.01497493 </v>
   <v>       0.91302622       0.02343957      -1.11201155 </v>
   <v>      -1.07100730      -0.11662393       0.64061423 </v>
   <v>      -0.82731133      -0.30434117       0.12013178 </v>
   <v>      -1.36171385       1.36394669      -0.58443309 </v>
   <v>       0.50037593       0.17935736      -0.56224135 </v>
   <v>       0.61185253       0.30407046      -0.04908866 </v>
   <v>       0.51408187       0.09838480      -0.60849276 </v>
   <v>       0.39523341      -0.65617824       0.24286964 </v>
   <v>       0.00946877      -0.69450917       0.04501490 </v>
  </varray>
  <varray name="stress" >
   <v>     -41.48008509      -5.13616191      28.81346831 </v>
   <v>      -5.13616197     -38.41813437     -22.61280058 </v>
   <v>      28.81346836     -22.61280055     -45.43347218 </v>
  </varray>
  <energy>
   <i name="e_fr_energy">   -161.86699362 </i>
   <i name="e_wo_entrp">   -161.77997573 </i>
   <i name="e_0_energy">     -0.17403577 </i>
  </energy>
  <time name="totalsc">   20.29   20.34</time>
 </calculation>
 <calculation>
  <scstep>
   <time name="dav">    0.56    0.56</time>
   <time name="total">    0.61    0.61</time>
   <energy>
    <i name="alphaZ">    525.83249229 </i>
    <i name="ewald">  -5009.31717521 </i>
    <i name="hartreedc">   -891.40116724 </i>
    <i name="XCdc">   -768.61033272 </i>
    <i name="pawpsdc">   7540.88518586 </i>
    <i name="pawaedc">  -6735.17443045 </i>
    <i name="eentropy">     -0.13179932 </i>
    <i name="bandstr">    483.98087166 </i>
    <i name="atom">   4687.48422623 </i>
    <i name="e_fr_energy">   -166.45212891 </i>
    <i name="e_wo_entrp">   -166.32032959 </i>
    <i name="e_0_energy">   -166.38622925 </i>
   </energy>
  </scstep>
  <scstep>
   <time name="dav">    0.89    0.89</time>
   <time name="total">    0.93    0.93</time>
   <energy>
    <i name="e_fr_energy">   -207.34766500 </i>
    <i name="e_wo_entrp">   -207.23682435 </i>
    <i name="e_0_energy">   -207.29224468 </i>
   </energy>
  </scstep>
  <scstep>
   <time name="dav">    0.93    0.93</time>
[...]
       <r>    7.4265    0.0000 </r>
       <r>    7.4560    0.0000 </r>
       <r>    7.5467    0.0000 </r>
       <r>    7.5787    0.0000 </r>
       <r>    7.6554    0.0000 </r>
       <r>    7.7696    0.0000 </r>
       <r>    7.7819    0.0000 </r>
       <r>    7.8488    0.0000 </r>
      </set>
      <set comment="kpoint 8">
       <r>    1.7153    1.0000 </r>
       <r>    1.7156    1.0000 </r>
       <r>    2.0045    1.0000 </r>
       <r>    2.1434    1.0000 </r>
       <r>    2.7956    1.0000 </r>
       <r>    2.9354    1.0000 </r>
       <r>    3.2290    1.0000 </r>
       <r>    3.2939    1.0000 </r>
       <r>    3.7285    1.0000 </r>
       <r>    3.7337    1.0000 </r>
       <r>    3.8034    1.0000 </r>
       <r>    3.8356    1.0000 </r>
       <r>    3.9147    1.0000 </r>
       <r>    3.9594    1.0000 </r>
       <r>    3.9987    1.0000 </r>
       <r>    4.0460    1.0000 </r>
       <r>    4.0956    1.0000 </r>
       <r>    4.2592    1.0000 </r>
       <r>    4.2944    1.0000 </r>
       <r>    4.4062    1.0000 </r>
       <r>    4.4618    1.0000 </r>
       <r>    4.5562    1.0000 </r>
       <r>    4.5710    1.0000 </r>
       <r>    4.6053    1.0000 </r>
       <r>    4.6991    1.0000 </r>
       <r>    4.7520    1.0000 </r>
       <r>    4.7741    1.0000 </r>
       <r>    4.7888    1.0000 </r>
       <r>    4.8830    1.0000 </r>
       <r>    4.9133    1.0000 </r>
       <r>    4.9809    1.0000 </r>
       <r>    5.0928    1.0000 </r>
       <r>    5.3013    1.0000 </r>
       <r>    5.3118    1.0000 </r>
       <r>    5.4081    1.0000 </r>
       <r>    5.4993    1.0000 </r>
       <r>    5.5054    1.0000 </r>
       <r>    5.5289    1.0000 </r>
       <r>    5.5840    1.0000 </r>
       <r>    5.5942    1.0000 </r>
       <r>    5.6696    1.0000 </r>
       <r>    5.6914    1.0000 </r>
       <r>    5.7852    1.0000 </r>
       <r>    5.8030    1.0000 </r>
       <r>    5.8746    1.0000 </r>
       <r>    5.9736    1.0000 </r>
       <r>    6.0043    1.0000 </r>
       <r>    6.0211    1.0000 </r>
       <r>    6.0694    1.0000 </r>
       <r>    6.1170    1.0000 </r>
       <r>    6.1422    1.0000 </r>
       <r>    6.1621    1.0000 </r>
       <r>    6.1719    1.0000 </r>
       <r>    6.2469    1.0000 </r>
       <r>    6.2703    0.9998 </r>
       <r>    6.2911    0.9995 </r>
       <r>    6.3059    0.9990 </r>
       <r>    6.6608    0.0264 </r>
       <r>    6.8599    0.0000 </r>
       <r>    7.0420    0.0000 </r>
       <r>    7.4354    0.0000 </r>
       <r>    7.4384    0.0000 </r>
       <r>    7.4888    0.0000 </r>
       <r>    7.5542    0.0000 </r>
       <r>    7.6495    0.0000 </r>
       <r>    7.7210    0.0000 </r>
       <r>    7.8300    0.0000 </r>
       <r>    7.8764    0.0000 </r>
      </set>
     </set>
    </set>
   </array>
  </eigenvalues>
  <separator name="orbital magnetization" >
   <v name="MAGDIPOLOUT">      0.00000000      0.00000000      0.00000000</v>
  </separator>
  <dos>
   <i name="efermi">      6.52384468 </i>
   <total>
    <array>
     <dimension dim="1">gridpoints</dimension>
     <dimension dim="2">spin</dimension>
     <field>energy</field>
     <field>total</field>
     <field>integrated</field>
     <set>
      <set comment="spin 1">
       <r>    -1.3592     0.0000     0.0000 </r>
       <r>    -1.3248     0.0000     0.0000 </r>
       <r>    -1.2904     0.0000     0.0000 </r>
       <r>    -1.2561     0.0000     0.0000 </r>
       <r>    -1.2217     0.0000     0.0000 </r>
       <r>    -1.1873     0.0000     0.0000 </r>
       <r>    -1.1530     0.0000     0.0000 </r>
       <r>    -1.1186     0.0000     0.0000 </r>
       <r>    -1.0842     0.0000     0.0000 </r>
       <r>    -1.0498     0.0000     0.0000 </r>
       <r>    -1.0155     0.0000     0.0000 </r>
       <r>    -0.9811     0.0000     0.0000 </r>
       <r>    -0.9467     0.0000     0.0000 </r>
       <r>    -0.9124     0.0000     0.0000 </r>
       <r>    -0.8780     0.0000     0.0000 </r>
       <r>    -0.8436     0.0000     0.0000 </r>
       <r>    -0.8092     0.0000     0.0000 </r>
       <r>    -0.7749     0.0000     0.0000 </r>
       <r>    -0.7405     0.0000     0.0000 </r>
       <r>    -0.7061     0.0000     0.0000 </r>
       <r>    -0.6718     0.0000     0.0000 </r>
       <r>    -0.6374     0.0003     0.0000 </r>
       <r>    -0.6030     0.0017     0.0001 </r>
       <r>    -0.5686     0.0091     0.0004 </r>
       <r>    -0.5343     0.0372     0.0017 </r>
       <r>    -0.4999     0.1212     0.0058 </r>
       <r>    -0.4655     0.3129     0.0166 </r>
       <r>    -0.4311     0.6408     0.0386 </r>
       <r>    -0.3968     1.0408     0.0744 </r>
       <r>    -0.3624     1.3409     0.1205 </r>
       <r>    -0.3280     1.3702     0.1676 </r>
       <r>    -0.2937     1.1106     0.2057 </r>
       <r>    -0.2593     0.7140     0.2303 </r>
       <r>    -0.2249     0.3641     0.2428 </r>
       <r>    -0.1905     0.1472     0.2479 </r>
       <r>    -0.1562     0.0472     0.2495 </r>
       <r>    -0.1218     0.0120     0.2499 </r>
       <r>    -0.0874     0.0024     0.2500 </r>
       <r>    -0.0531     0.0004     0.2500 </r>
       <r>    -0.0187     0.0000     0.2500 </r>
       <r>     0.0157     0.0000     0.2500 </r>
       <r>     0.0501     0.0000     0.2500 </r>
       <r>     0.0844     0.0000     0.2500 </r>
       <r>     0.1188     0.0000     0.2500 </r>
       <r>     0.1532     0.0000     0.2500 </r>
       <r>     0.1876     0.0000     0.2500 </r>
       <r>     0.2219     0.0000     0.2500 </r>
       <r>     0.2563     0.0002     0.2500 </r>
       <r>     0.2907     0.0016     0.2501 </r>
       <r>     0.3250     0.0087     0.2504 </r>
       <r>     0.3594     0.0378     0.2517 </r>
       <r>     0.3938     0.1308     0.2562 </r>
       <r>     0.4282     0.3644     0.2687 </r>
       <r>     0.4625     0.8217     0.2969 </r>
       <r>     0.4969     1.5099     0.3488 </r>
       <r>     0.5313     2.2861     0.4274 </r>
       <r>     0.5656     2.9030     0.5272 </r>
       <r>     0.6000     3.1776     0.6364 </r>
       <r>     0.6344     3.1166     0.7435 </r>
       <r>     0.6688     2.8678     0.8421 </r>
       <r>     0.7031     2.5837     0.9309 </r>
       <r>     0.7375     2.3380     1.0113 </r>
       <r>     0.7719     2.1070     1.0837 </r>
       <r>     0.8062     1.8050     1.1457 </r>
       <r>     0.8406     1.3870     1.1934 </r>
       <r>     0.8750     0.9378     1.2256 </r>
       <r>     0.9094     0.6474     1.2479 </r>
       <r>     0.9437     0.7225     1.2727 </r>
       <r>     0.9781     1.3181     1.3180 </r>
       <r>     1.0125     2.4459     1.4021 </r>
       <r>     1.0469     3.8370     1.5340 </r>
       <r>     1.0812     4.9367     1.7037 </r>
       <r>     1.1156     5.1957     1.8823 </r>
       <r>     1.1500     4.4770     2.0361 </r>
       <r>     1.1843     3.1714     2.1452 </r>
       <r>     1.2187     1.9045     2.2106 </r>
       <r>     1.2531     1.1496     2.2501 </r>
       <r>     1.2875     1.0686     2.2869 </r>
       <r>     1.3218     1.5486     2.3401 </r>
       <r>     1.3562     2.2561     2.4176 </r>
       <r>     1.3906     2.7407     2.5118 </r>
       <r>     1.4249     2.6901     2.6043 </r>
       <r>     1.4593     2.1739     2.6790 </r>
       <r>     1.4937     1.5885     2.7336 </r>
       <r>     1.5281     1.3398     2.7797 </r>
       <r>     1.5624     1.5988     2.8346 </r>
       <r>     1.5968     2.3236     2.9145 </r>
       <r>     1.6312     3.4099     3.0317 </r>
       <r>     1.6656     4.7153     3.1938 </r>
       <r>     1.6999     5.9299     3.3976 </r>
       <r>     1.7343     6.5685     3.6234 </r>
       <r>     1.7687     6.2626     3.8386 </r>
       <r>     1.8030     5.0839     4.0134 </r>
       <r>     1.8374     3.5336     4.1348 </r>
       <r>     1.8718     2.2290     4.2115 </r>
       <r>     1.9062     1.5969     4.2663 </r>
       <r>     1.9405     1.7442     4.3263 </r>
       <r>     1.9749     2.4673     4.4111 </r>
       <r>     2.0093     3.3571     4.5265 </r>
       <r>     2.0436     4.0060     4.6642 </r>
       <r>     2.0780     4.2037     4.8087 </r>
       <r>     2.1124     3.9502     4.9444 </r>
       <r>     2.1468     3.3378     5.0592 </r>
       <r>     2.1811     2.4976     5.1450 </r>
       <r>     2.2155     1.6225     5.2008 </r>
       <r>     2.2499     0.9357     5.2330 </r>
       <r>     2.2843     0.6072     5.2538 </r>
       <r>     2.3186     0.7180     5.2785 </r>
       <r>     2.3530     1.2531     5.3216 </r>
       <r>     2.3874     2.0523     5.3921 </r>
       <r>     2.4217     2.7990     5.4883 </r>
       <r>     2.4561     3.1975     5.5982 </r>
       <r>     2.4905     3.2250     5.7091 </r>
       <r>     2.5249     3.1492     5.8173 </r>
       <r>     2.5592     3.2755     5.9299 </r>
       <r>     2.5936     3.7265     6.0580 </r>
       <r>     2.6280     4.4414     6.2107 </r>
       <r>     2.6623     5.3102     6.3932 </r>
       <r>     2.6967     6.3101     6.6101 </r>
       <r>     2.7311     7.5166     6.8684 </r>
       <r>     2.7655     8.9081     7.1746 </r>
       <r>     2.7998    10.1715     7.5242 </r>
       <r>     2.8342    10.8707     7.8979 </r>
       <r>     2.8686    10.8900     8.2722 </r>
       <r>     2.9029    10.6115     8.6369 </r>
       <r>     2.9373    10.5715     9.0003 </r>
       <r>     2.9717    10.9646     9.3772 </r>
       <r>     3.0061    11.4809     9.7718 </r>
       <r>     3.0404    11.5890    10.1701 </r>
       <r>     3.0748    11.0021    10.5483 </r>
       <r>     3.1092     9.9537    10.8904 </r>
       <r>     3.1436     9.0615    11.2019 </r>
       <r>     3.1779     8.9017    11.5079 </r>
       <r>     3.2123     9.6625    11.8400 </r>
       <r>     3.2467    11.1201    12.2222 </r>
       <r>     3.2810    12.8370    12.6634 </r>
       <r>     3.3154    14.3977    13.1583 </r>
       <r>     3.3498    15.6536    13.6964 </r>
       <r>     3.3842    16.8434    14.2753 </r>
       <r>     3.4185    18.3375    14.9056 </r>
       <r>     3.4529    20.2039    15.6001 </r>
       <r>     3.4873    22.1661    16.3620 </r>
       <r>     3.5216    24.0076    17.1872 </r>
       <r>     3.5560    25.8447    18.0755 </r>
       <r>     3.5904    27.9271    19.0354 </r>
       <r>     3.6248    30.2917    20.0766 </r>
       <r>     3.6591    32.7500    21.2023 </r>
       <r>     3.6935    35.1397    22.4101 </r>
       <r>     3.7279    37.3243    23.6930 </r>
       <r>     3.7623    38.8995    25.0301 </r>
       <r>     3.7966    39.2467    26.3791 </r>
       <r>     3.8310    38.1199    27.6893 </r>
       <r>     3.8654    36.0147    28.9272 </r>
       <r>     3.8997    33.7679    30.0879 </r>
       <r>     3.9341    31.8856    31.1839 </r>
       <r>     3.9685    30.3304    32.2264 </r>
       <r>     4.0029    28.7583    33.2149 </r>
       <r>     4.0372    26.7938    34.1359 </r>
       <r>     4.0716    24.2883    34.9707 </r>
       <r>     4.1060    21.5939    35.7129 </r>
       <r>     4.1403    19.5022    36.3833 </r>
       <r>     4.1747    18.6941    37.0258 </r>
       <r>     4.2091    19.2437    37.6873 </r>
       <r>     4.2435    20.6365    38.3966 </r>
       <r>     4.2778    22.0720    39.1552 </r>
       <r>     4.3122    22.7183    39.9361 </r>
       <r>     4.3466    21.9590    40.6909 </r>
       <r>     4.3809    19.6924    41.3678 </r>
       <r>     4.4153    16.5155    41.9354 </r>
       <r>     4.4497    13.5742    42.4020 </r>
       <r>     4.4841    12.0236    42.8153 </r>
       <r>     4.5184    12.3496    43.2398 </r>
       <r>     4.5528    14.0950    43.7242 </r>
       <r>     4.5872    16.3968    44.2878 </r>
       <r>     4.6216    18.9908    44.9406 </r>
       <r>     4.6559    22.5869    45.7169 </r>
       <r>     4.6903    27.9352    46.6771 </r>
       <r>     4.7247    34.4693    47.8619 </r>
       <r>     4.7590    40.1864    49.2432 </r>
       <r>     4.7934    43.0901    50.7243 </r>
       <r>     4.8278    42.7041    52.1921 </r>
       <r>     4.8622    40.1596    53.5725 </r>
       <r>     4.8965    37.0042    54.8444 </r>
       <r>     4.9309    34.1158    56.0171 </r>
       <r>     4.9653    31.6591    57.1052 </r>
       <r>     4.9996    29.6650    58.1249 </r>
       <r>     5.0340    28.3336    59.0988 </r>
       <r>     5.0684    27.8560    60.0563 </r>
       <r>     5.1028    28.1390    61.0234 </r>
       <r>     5.1371    28.7131    62.0104 </r>
       <r>     5.1715    28.9265    63.0046 </r>
       <r>     5.2059    28.4580    63.9828 </r>
       <r>     5.2403    27.8035    64.9385 </r>
       <r>     5.2746    28.0319    65.9020 </r>
       <r>     5.3090    29.7184    66.9235 </r>
       <r>     5.3434    32.1913    68.0299 </r>
       <r>     5.3777    34.1589    69.2041 </r>
       <r>     5.4121    35.0342    70.4083 </r>
       <r>     5.4465    35.3129    71.6220 </r>
       <r>     5.4809    35.7074    72.8494 </r>
       <r>     5.5152    36.2772    74.0963 </r>
       <r>     5.5496    36.4490    75.3491 </r>
       <r>     5.5840    35.6519    76.5746 </r>
       <r>     5.6183    33.9338    77.7409 </r>
       <r>     5.6527    32.1242    78.8451 </r>
       <r>     5.6871    31.3523    79.9228 </r>
       <r>     5.7215    32.2029    81.0296 </r>
       <r>     5.7558    34.1654    82.2040 </r>
       <r>     5.7902    35.8756    83.4371 </r>
       <r>     5.8246    36.1374    84.6792 </r>
       <r>     5.8590    35.0168    85.8828 </r>
       <r>     5.8933    33.8818    87.0474 </r>
       <r>     5.9277    34.1308    88.2206 </r>
       <r>     5.9621    35.9103    89.4549 </r>
       <r>     5.9964    38.1547    90.7663 </r>
       <r>     6.0308    39.6535    92.1293 </r>
       <r>     6.0652    39.9235    93.5016 </r>
       <r>     6.0996    39.3144    94.8529 </r>
       <r>     6.1339    38.5638    96.1784 </r>
       <r>     6.1683    38.2138    97.4919 </r>
       <r>     6.2027    38.2812    98.8077 </r>
       <r>     6.2370    38.3724   100.1266 </r>
       <r>     6.2714    38.0429   101.4343 </r>
       <r>     6.3058    37.0459   102.7076 </r>
       <r>     6.3402    35.3541   103.9228 </r>
       <r>     6.3745    33.0977   105.0604 </r>
       <r>     6.4089    30.5344   106.1100 </r>
       <r>     6.4433    27.9660   107.0712 </r>
       <r>     6.4776    25.5352   107.9489 </r>
       <r>     6.5120    23.1598   108.7450 </r>
       <r>     6.5464    20.8318   109.4610 </r>
       <r>     6.5808    18.8637   110.1094 </r>
       <r>     6.6151    17.5470   110.7125 </r>
       <r>     6.6495    16.6166   111.2837 </r>
       <r>     6.6839    15.3862   111.8125 </r>
       <r>     6.7183    13.4869   112.2761 </r>
       <r>     6.7526    11.2717   112.6635 </r>
       <r>     6.7870     9.4506   112.9884 </r>
       <r>     6.8214     8.4890   113.2801 </r>
       <r>     6.8557     8.3990   113.5688 </r>
       <r>     6.8901     8.9361   113.8760 </r>
       <r>     6.9245     9.7975   114.2128 </r>
       <r>     6.9589    10.6345   114.5783 </r>
       <r>     6.9932    11.0705   114.9588 </r>
       <r>     7.0276    10.8743   115.3326 </r>
       <r>     7.0620    10.1317   115.6808 </r>
       <r>     7.0963     9.2713   115.9995 </r>
       <r>     7.1307     9.0377   116.3101 </r>
       <r>     7.1651    10.3844   116.6671 </r>
       <r>     7.1995    13.9831   117.1477 </r>
       <r>     7.2338    19.4406   117.8159 </r>
       <r>     7.2682    25.1420   118.6801 </r>
       <r>     7.3026    29.3523   119.6890 </r>
       <r>     7.3370    31.5771   120.7744 </r>
       <r>     7.3713    32.5214   121.8922 </r>
       <r>     7.4057    32.7883   123.0192 </r>
       <r>     7.4401    32.1975   124.1259 </r>
       <r>     7.4744    30.4834   125.1737 </r>
       <r>     7.5088    27.9985   126.1361 </r>
       <r>     7.5432    25.3598   127.0077 </r>
       <r>     7.5776    22.8573   127.7934 </r>
       <r>     7.6119    20.5816   128.5008 </r>
       <r>     7.6463    18.7998   129.1470 </r>
       <r>     7.6807    17.8861   129.7618 </r>
       <r>     7.7150    18.0449   130.3820 </r>
       <r>     7.7494    19.1716   131.0410 </r>
       <r>     7.7838    20.7995   131.7559 </r>
       <r>     7.8182    22.2010   132.5190 </r>
       <r>     7.8525    22.6903   133.2989 </r>
       <r>     7.8869    21.8101   134.0486 </r>
       <r>     7.9213    19.3302   134.7130 </r>
       <r>     7.9556    15.3872   135.2419 </r>
       <r>     7.9900    10.6963   135.6096 </r>
       <r>     8.0244     6.3390   135.8274 </r>
       <r>     8.0588     3.1458   135.9356 </r>
       <r>     8.0931     1.2906   135.9799 </r>
       <r>     8.1275     0.4337   135.9948 </r>
       <r>     8.1619     0.1186   135.9989 </r>
       <r>     8.1963     0.0262   135.9998 </r>
       <r>     8.2306     0.0047   136.0000 </r>
       <r>     8.2650     0.0007   136.0000 </r>
       <r>     8.2994     0.0001   136.0000 </r>
       <r>     8.3337     0.0000   136.0000 </r>
       <r>     8.3681     0.0000   136.0000 </r>
       <r>     8.4025     0.0000   136.0000 </r>
       <r>     8.4369     0.0000   136.0000 </r>
       <r>     8.4712     0.0000   136.0000 </r>
       <r>     8.5056     0.0000   136.0000 </r>
       <r>     8.5400     0.0000   136.0000 </r>
       <r>     8.5743     0.0000   136.0000 </r>
       <r>     8.6087     0.0000   136.0000 </r>
       <r>     8.6431     0.0000   136.0000 </r>
       <r>     8.6775     0.0000   136.0000 </r>
       <r>     8.7118     0.0000   136.0000 </r>
       <r>     8.7462     0.0000   136.0000 </r>
       <r>     8.7806     0.0000   136.0000 </r>
       <r>     8.8150     0.0000   136.0000 </r>
       <r>     8.8493     0.0000   136.0000 </r>
       <r>     8.8837     0.0000   136.0000 </r>
       <r>     8.9181     0.0000   136.0000 </r>
       <r>     8.9524     0.0000   136.0000 </r>
      </set>
     </set>
    </array>
   </total>
  </dos>
 </calculation>
 <structure name="finalpos" >
  <crystal>
   <varray name="basis" >
    <v>       7.20565452       0.23333959      -0.27788015 </v>
    <v>      -0.12335902       6.48081281      -0.42513732 </v>
    <v>       2.59459698       0.52777858       5.22888781 </v>
   </varray>
   <i name="volume">    250.38179772 </i>
   <varray name="rec_basis" >
    <v>       0.13623922      -0.00182932      -0.06741785 </v>
    <v>      -0.00545873       0.15335997      -0.01277077 </v>
    <v>       0.00679637       0.01237179       0.18662412 </v>
   </varray>
  </crystal>
  <varray name="positions" >
   <v>       0.08648019       0.08807443       0.01777547 </v>
   <v>       0.58764525       0.58363340       0.01870458 </v>
   <v>      -0.00985508       0.38681277       0.31677079 </v>
   <v>       0.28894557       0.49142218       0.41751815 </v>
   <v>       0.48778505       0.88432977       0.31748968 </v>
   <v>       0.68778976       0.28971933       0.71756716 </v>
   <v>       0.38552038       0.19253415       0.61672841 </v>
   <v>       0.88827156       0.68537337       0.61763115 </v>
   <v>       0.78830897      -0.00486237      -0.08427020 </v>
   <v>       0.48694469       0.89424376       0.81768778 </v>
   <v>       0.18769208       0.78980381       0.21783480 </v>
   <v>       0.78768218      -0.00423349       0.41657877 </v>
   <v>      -0.01010265       0.38684593       0.81866559 </v>
   <v>       0.88755201       0.69502505       0.11784884 </v>
   <v>       0.18768044       0.78965101       0.71770693 </v>
   <v>       0.38524002       0.19264809       0.11863206 </v>
   <v>       0.58702573       0.58425354       0.51954157 </v>
   <v>       0.68762411       0.28977658       0.21771339 </v>
   <v>       0.08786509       0.09115086       0.51715449 </v>
   <v>       0.28751863       0.48825283      -0.08180441 </v>
  </varray>
 </structure>
</modeling>
