unknown system                          
           1
     7.295595    0.000000    0.000000
    -0.375836    5.878955    0.000000
     2.907593    0.870292    6.040316
   V    Fe
  17   3
Direct configuration=     1
   0.14038900  0.98885900  0.04499800
   0.57814600  0.60008800  0.02295200
   0.89689900  0.47303200  0.35808900
   0.38644900  0.22858100  0.32546400
   0.48223100  0.84721700  0.40428400
   0.68368700  0.37574100  0.79176400
   0.47038200  0.25436900  0.64271800
   0.94345000  0.94783300  0.40516100
   0.67400300  0.92600800  0.02550900
   0.39712200  0.87333500  0.69653500
   0.30903000  0.80838900  0.23820400
   0.67211300  0.04751000  0.43962800
   0.19573800  0.36763300  0.78951700
   0.91390600  0.71613300  0.10336700
   0.09691800  0.60976400  0.69242500
   0.27399800  0.19700100  0.13546200
   0.59352200  0.53489500  0.45198700
   0.71093800  0.29659400  0.12589100
   0.11109300  0.08162500  0.63306800
   0.22360000  0.61984800  0.02645200
unknown system                          
           1
     8.124558    0.064328    0.064783
    -0.366703    6.553237   -0.042443
     3.299278    0.956058    6.684755
   V    Fe
  17   3
Direct configuration=     2
   0.13298954  0.00433050  0.02163497
   0.57895627  0.60218622  0.01085734
   0.91282769  0.45520503  0.36421559
   0.38210436  0.24145113  0.34052954
   0.46690472  0.84042575  0.39488573
   0.69518931  0.37051785  0.78714756
   0.47031207  0.23919158  0.65975225
   0.93751258  0.93145806  0.43459711
   0.68758873  0.95075543 -0.00096785
   0.37454097  0.84288621  0.74275317
   0.29227920  0.79442799  0.24906671
   0.71453600  0.06922039  0.42210646
   0.17818598  0.37390952  0.80227981
   0.89718688  0.70731668  0.09762125
   0.08147720  0.62356191  0.68409667
   0.28336738  0.22334000  0.11911249
   0.59336075  0.55209760  0.45067089
   0.73646976  0.29841394  0.11376414
   0.10329776  0.07011280  0.63658372
   0.23452685  0.60364640  0.02276746
unknown system                          
           1
     7.769989    0.036813    0.037073
    -0.370610    6.264829   -0.024289
     3.131744    0.919374    6.409111
   V    Fe
  17   3
Direct configuration=     3
   0.13580521 -0.00161455  0.03059955
   0.57860442  0.60138985  0.01553017
   0.90664937  0.46208850  0.36195129
   0.38388224  0.23649601  0.33465815
   0.47275239  0.84298408  0.39847765
   0.69071951  0.37255965  0.78898806
   0.47035210  0.24500257  0.65320517
   0.93985816  0.93770359  0.42323723
   0.68233563  0.94132338  0.00925625
   0.38331801  0.85446611  0.72487870
   0.29872944  0.79972142  0.24483946
   0.69819127  0.06104200  0.42898486
   0.18502293  0.37144063  0.79726516
   0.90357853  0.71064525  0.09980113
   0.08744490  0.61822571  0.68722378
   0.27978429  0.21327956  0.12540229
   0.59347775  0.54550236  0.45113655
   0.72658758  0.29780427  0.11854297
   0.10627605  0.07449966  0.63522392
   0.23024423  0.60989495  0.02427268
unknown system                          
           1
     7.746578    0.034997    0.035244
    -0.370868    6.245787   -0.023090
     3.120683    0.916952    6.390912
   V    Fe
  17   3
Direct configuration=     4
   0.13600033 -0.00202492  0.03121869
   0.57858127  0.60133460  0.01585201
   0.90622453  0.46256271  0.36179248
   0.38400193  0.23615427  0.33425518
   0.47315718  0.84316209  0.39872613
   0.69041238  0.37269962  0.78911324
   0.47035449  0.24540426  0.65275329
   0.94001827  0.93813600  0.42245447
   0.68197396  0.94067018  0.00996057
   0.38392103  0.85526878  0.72364812
   0.29917428  0.80008878  0.24454916
   0.69706431  0.06047292  0.42945557
   0.18549227  0.37127180  0.79692211
   0.90402062  0.71087665  0.09995237
   0.08785585  0.61785832  0.68744168
   0.27953649  0.21258345  0.12583624
   0.59348429  0.54504671  0.45116981
   0.72590747  0.29775969  0.11886950
   0.10648209  0.07480349  0.63513030
   0.22995097  0.61032561  0.02437407
unknown system                          
           1
     7.650891    0.033946    0.133041
    -0.366757    6.152419   -0.077310
     3.163468    0.851968    6.285283
   V    Fe
  17   3
Direct configuration=     5
   0.12926345  0.00219135  0.02519341
   0.57756233  0.60065890  0.01315892
   0.91437632  0.45429174  0.36168338
   0.38421272  0.24250359  0.34369755
   0.46485874  0.85024841  0.39357222
   0.69784425  0.36958295  0.78677680
   0.46923257  0.23086211  0.66152132
   0.94156714  0.92618538  0.43595562
   0.68810746  0.95669136  0.00005929
   0.37465637  0.83899569  0.74372999
   0.28738120  0.79533676  0.24477173
   0.71635048  0.07137122  0.41704306
   0.17486282  0.37369945  0.80319428
   0.89456439  0.70344142  0.10284029
   0.08029770  0.62985524  0.68195967
   0.28411332  0.21995914  0.11833483
   0.59878750  0.55160872  0.44778370
   0.73334459  0.29926792  0.11405949
   0.10851632  0.06949820  0.63538638
   0.23371433  0.60820545  0.02275304
unknown system                          
           1
     7.508643    0.032383    0.278427
    -0.360646    6.013618   -0.157914
     3.227073    0.755364    6.128255
   V    Fe
  17   3
Direct configuration=     6
   0.11914402  0.00845013  0.01629769
   0.57607127  0.59960389  0.00910186
   0.92677301  0.44185056  0.36121616
   0.38432613  0.25219089  0.35805434
   0.45234228  0.86083882  0.38606898
   0.70916375  0.36488144  0.78302662
   0.46744888  0.20904557  0.67461440
   0.94372998  0.90834232  0.45617668
   0.69749739  0.98074037 -0.01484666
   0.36033749  0.81468131  0.77410112
   0.26953379  0.78813665  0.24532504
   0.74574155  0.08771177  0.39796061
   0.15863018  0.37739985  0.81296244
   0.88022307  0.69223731  0.10733316
   0.06888307  0.64784619  0.67400752
   0.29114624  0.23100041  0.10698064
   0.60685008  0.56147642  0.44262440
   0.74469297  0.30150747  0.10662986
   0.11162169  0.06151121  0.63565543
   0.23945719  0.60500242  0.02018471
unknown system                          
           1
     7.538687    0.030365    0.396202
    -0.363432    6.053387   -0.236710
     3.334675    0.686102    6.169506
   V    Fe
  17   3
Direct configuration=     7
   0.09990573  0.01624418  0.01833345
   0.57535129  0.60116987  0.00764647
   0.93924553  0.43268766  0.36053119
   0.38357622  0.26464912  0.36675597
   0.45067644  0.86816286  0.38368431
   0.72206096  0.36072774  0.77477833
   0.46302419  0.20021551  0.68145093
   0.93894608  0.89482751  0.47318800
   0.70659413  0.99585841 -0.02748180
   0.36615458  0.80813110  0.77385834
   0.25934522  0.78788877  0.24815206
   0.76118815  0.08935392  0.38399366
   0.14448740  0.37620507  0.82044270
   0.87285629  0.68931068  0.10623952
   0.05784150  0.66152887  0.67083375
   0.29974142  0.23465534  0.10102777
   0.61016158  0.56571308  0.44475591
   0.75528983  0.30435991  0.10029949
   0.11176548  0.05503555  0.63995620
   0.23540198  0.58772986  0.02502874
unknown system                          
           1
     7.569250    0.028313    0.516011
    -0.366266    6.093842   -0.316867
     3.444134    0.615645    6.211469
   V    Fe
  17   3
Direct configuration=     8
   0.08017550  0.02408563  0.02087229
   0.57462305  0.60273037  0.00620866
   0.95205351  0.42346433  0.35947384
   0.38263803  0.27732648  0.37573648
   0.44895883  0.87552012  0.38140010
   0.73536058  0.35646716  0.76612644
   0.45847493  0.19137790  0.68833883
   0.93394032  0.88138692  0.49031535
   0.71594828  0.01098178 -0.04024561
   0.37214043  0.80153287  0.77341307
   0.24890143  0.78764761  0.25120882
   0.77712521  0.09087808  0.36958197
   0.12995454  0.37505570  0.82827224
   0.86535682  0.68632514  0.10523950
   0.04651400  0.67526929  0.66801824
   0.30857282  0.23829206  0.09488444
   0.61349705  0.57002311  0.44690260
   0.76617595  0.30718724  0.09372448
   0.11190068  0.04855416  0.64421981
   0.23130203  0.57034904  0.02978345
unknown system                          
           1
     7.520185    0.026787    0.499286
    -0.363467    6.121460   -0.332358
     3.407865    0.602158    6.213617
   V    Fe
  17   3
Direct configuration=     9
   0.07123040  0.02418513  0.02492466
   0.57270086  0.60722962  0.00912359
   0.95909727  0.42271245  0.35842322
   0.38092443  0.28639535  0.37745013
   0.45850700  0.87694140  0.37914061
   0.74607288  0.35402089  0.75566247
   0.45852921  0.19422694  0.68641563
   0.91737007  0.87650995  0.50414749
   0.71723084  0.00730006 -0.04270184
   0.37784527  0.80687641  0.76729733
   0.25460665  0.79131305  0.24390889
   0.76914743  0.08581791  0.36655641
   0.12438516  0.37353836  0.82993177
   0.86698486  0.68860251  0.10226294
   0.04148099  0.67671805  0.67276557
   0.31382744  0.23072602  0.09607498
   0.61229926  0.56849138  0.45359708
   0.76926542  0.31170399  0.09403314
   0.11477557  0.05116924  0.64559919
   0.22733299  0.55997627  0.02886172
unknown system                          
           1
     7.433070    0.024079    0.469591
    -0.358497    6.170496   -0.359864
     3.343466    0.578212    6.217430
   V    Fe
  17   3
Direct configuration=    10
   0.05529789  0.02437703  0.03207986
   0.56928277  0.61519198  0.01430712
   0.97166511  0.42137963  0.35658398
   0.37785399  0.30242802  0.38052223
   0.47552830  0.87944405  0.37517550
   0.76510794  0.34965641  0.73712774
   0.45859981  0.19925390  0.68301535
   0.88792976  0.86794671  0.52860443
   0.71950878  0.00078421 -0.04707055
   0.38795757  0.81629481  0.75649092
   0.26471366  0.79776131  0.23099417
   0.75489159  0.07686384  0.36113468
   0.11446196  0.37086361  0.83284778
   0.86985703  0.69261508  0.09699745
   0.03253522  0.67929707  0.68117520
   0.32324216  0.21736062  0.09817655
   0.61022748  0.56581128  0.46546448
   0.77477050  0.31968693  0.09461221
   0.11991316  0.05579593  0.64806925
   0.22026932  0.54164257  0.02716664
unknown system                          
           1
     7.224644    0.015067    0.403410
    -0.352288    6.085260   -0.362359
     3.198281    0.558429    6.145235
   V    Fe
  17   3
Direct configuration=    11
   0.05730726  0.02414684  0.02968646
   0.56844692  0.61479226  0.01251753
   0.97639180  0.41821875  0.35713539
   0.37431271  0.31127990  0.38221544
   0.47687583  0.88314129  0.37110607
   0.77793171  0.34808361  0.72556798
   0.46036145  0.20295841  0.68451848
   0.87476226  0.86180143  0.54207765
   0.71600036 -0.00441064 -0.04548462
   0.38838617  0.82142137  0.76022042
   0.26368639  0.79976882  0.22530876
   0.74211158  0.07845025  0.36496235
   0.11132215  0.36714821  0.82607374
   0.87378340  0.69195283  0.09903317
   0.02809083  0.68095158  0.68303512
   0.33002583  0.20688769  0.09745186
   0.60978732  0.56362564  0.47374582
   0.77031316  0.32589482  0.09896444
   0.12806513  0.05735434  0.64095070
   0.22565174  0.54098760  0.02438826
unknown system                          
           1
     7.175320    0.012934    0.387748
    -0.350818    6.065089   -0.362950
     3.163923    0.553748    6.128151
   V    Fe
  17   3
Direct configuration=    12
   0.05778590  0.02409063  0.02911820
   0.56823776  0.61469530  0.01208749
   0.97754068  0.41746128  0.35727661
   0.37345848  0.31340418  0.38261547
   0.47718715  0.88402643  0.37013663
   0.78099990  0.34770193  0.72283003
   0.46079351  0.20384828  0.68488300
   0.87161904  0.86033223  0.54527026
   0.71515619 -0.00565671 -0.04511442
   0.38850279  0.82265343  0.76111506
   0.26341619  0.80024736  0.22394707
   0.73902583  0.07883115  0.36585073
   0.11053666  0.36625278  0.82444531
   0.87474316  0.69179554  0.09952848
   0.02701946  0.68134892  0.68347090
   0.33167022  0.20437541  0.09729006
   0.60971113  0.56310551  0.47572527
   0.76924692  0.32738599  0.09999778
   0.13001594  0.05772564  0.63926597
   0.22694708  0.54082973  0.02373511
unknown system                          
           1
     7.130855    0.008220    0.349947
    -0.350583    6.080196   -0.365932
     3.110067    0.550900    6.157865
   V    Fe
  17   3
Direct configuration=    13
   0.06015519  0.02459520  0.02774058
   0.56910697  0.61236760  0.00867587
   0.98012934  0.41484911  0.35778111
   0.37066937  0.31978010  0.38332066
   0.47504123  0.88621484  0.36742759
   0.78881433  0.34620881  0.71636835
   0.46187556  0.20673661  0.68770062
   0.86450891  0.85685516  0.55176195
   0.71218414 -0.00824540 -0.04428489
   0.38800117  0.82498507  0.76523155
   0.25957520  0.80132700  0.22303594
   0.73390349  0.08077779  0.36822459
   0.10870698  0.36411298  0.81898746
   0.87736043  0.69104573  0.10278178
   0.02539435  0.68212351  0.68393895
   0.33674102  0.19802683  0.09607503
   0.60939605  0.56229698  0.48084547
   0.76506813  0.33122135  0.10334544
   0.13521216  0.05817525  0.63324548
   0.23176999  0.54100046  0.02127147
unknown system                          
           1
     7.030685   -0.002399    0.264788
    -0.350052    6.114231   -0.372651
     2.988742    0.544483    6.224806
   V    Fe
  17   3
Direct configuration=    14
   0.06548110  0.02572736  0.02468576
   0.57099763  0.60713020  0.00104095
   0.98599549  0.40898165  0.35894419
   0.36437441  0.33410770  0.38486857
   0.47012711  0.89112564  0.36133020
   0.80633959  0.34284398  0.70199257
   0.46438308  0.21323361  0.69403109
   0.84858023  0.84905173  0.56621045
   0.70548458 -0.01406234 -0.04246795
   0.38695739  0.83023302  0.77445085
   0.25086946  0.80374915  0.22094370
   0.72237341  0.08515451  0.37347685
   0.10444948  0.35929207  0.80673137
   0.88335142  0.68936906  0.11010619
   0.02172985  0.68386427  0.68496660
   0.34818356  0.18376079  0.09341526
   0.60879869  0.56049077  0.49231389
   0.75569189  0.33984482  0.11079393
   0.14682608  0.05917558  0.61982480
   0.24261954  0.54138142  0.01581572
unknown system                          
           1
     7.076944    0.006174    0.263148
    -0.344928    6.146473   -0.369301
     3.006398    0.556263    6.257313
   V    Fe
  17   3
Direct configuration=    15
   0.06434799  0.02745041  0.02556506
   0.57460421  0.60373548 -0.00310307
   0.98852132  0.40845921  0.35587180
   0.36415600  0.33939577  0.38465736
   0.46738955  0.89074041  0.36046945
   0.80567030  0.33927770  0.70350949
   0.46424592  0.21459688  0.69744863
   0.84751260  0.84931818  0.56417939
   0.70519736 -0.01349972 -0.04275484
   0.38639095  0.83043157  0.77677625
   0.24426610  0.80268190  0.22585042
   0.72648039  0.08583555  0.37140329
   0.10332559  0.36024468  0.80685030
   0.88298068  0.68920239  0.11376676
   0.02397535  0.68427816  0.68578566
   0.35147018  0.18472268  0.09144275
   0.60771501  0.56012477  0.49392527
   0.75504749  0.34039147  0.11072056
   0.14681860  0.05942416  0.61700486
   0.24349840  0.53764334  0.01410560
unknown system                          
           1
     7.135908    0.017101    0.261057
    -0.338397    6.187570   -0.365030
     3.028903    0.571277    6.298748
   V    Fe
  17   3
Direct configuration=    16
   0.06291176  0.02963578  0.02667750
   0.57917450  0.59943184 -0.00835175
   0.99172065  0.40779776  0.35197824
   0.36387534  0.34610210  0.38438394
   0.46392454  0.89025848  0.35937687
   0.80482523  0.33475392  0.70543615
   0.46406976  0.21631955  0.70178034
   0.84616163  0.84966172  0.56160324
   0.70483343 -0.01278525 -0.04311935
   0.38567272  0.83068010  0.77972415
   0.23590523  0.80133162  0.23206900
   0.73168002  0.08669548  0.36877588
   0.10190196  0.36145448  0.80699944
   0.88250994  0.68898500  0.11840807
   0.02681742  0.68479740  0.68682508
   0.35563100  0.18594003  0.08894269
   0.60634273  0.55965968  0.49596813
   0.75423129  0.34108595  0.11062658
   0.14681011  0.05974456  0.61342911
   0.24461472  0.53290481  0.01194169
unknown system                          
           1
     7.117717    0.023651    0.258765
    -0.331907    6.158702   -0.358536
     3.020782    0.576164    6.268396
   V    Fe
  17   3
Direct configuration=    17
   0.06182036  0.03139969  0.02708589
   0.58197886  0.59690842 -0.01211796
   0.99394317  0.40746825  0.34895293
   0.36411591  0.35151600  0.38435574
   0.46196562  0.89010000  0.35880731
   0.80396018  0.33085944  0.70708491
   0.46430148  0.21710927  0.70404788
   0.84586322  0.84980659  0.55942739
   0.70484689 -0.01225410 -0.04317310
   0.38472749  0.83071887  0.78225741
   0.22971512  0.79945717  0.23636016
   0.73498112  0.08742998  0.36640420
   0.10049529  0.36222542  0.80764404
   0.88155958  0.68917451  0.12206466
   0.02870223  0.68543270  0.68753376
   0.35891675  0.18730758  0.08732127
   0.60522374  0.55901616  0.49738249
   0.75383242  0.34104704  0.11063686
   0.14680297  0.06024539  0.61069612
   0.24586161  0.52948664  0.01070302
unknown system                          
           1
     7.072279    0.040010    0.253041
    -0.315695    6.086593   -0.342317
     3.000496    0.588372    6.192582
   V    Fe
  17   3
Direct configuration=    18
   0.05908504  0.03582830  0.02810703
   0.58901197  0.59057941 -0.02156439
   0.99951561  0.40664457  0.34136162
   0.36471329  0.36510276  0.38427497
   0.45706227  0.88970936  0.35737712
   0.80179389  0.32108269  0.71122987
   0.46487549  0.21908358  0.70973770
   0.84512111  0.85017772  0.55396593
   0.70488024 -0.01092095 -0.04330898
   0.38235466  0.83081090  0.78861492
   0.21420737  0.79475642  0.24713063
   0.74325161  0.08927170  0.36045197
   0.09697090  0.36416209  0.80925972
   0.87917106  0.68964140  0.13124127
   0.03341925  0.68701977  0.68931222
   0.36714642  0.19073579  0.08325087
   0.60241914  0.55739980  0.50093294
   0.75283372  0.34095043  0.11066255
   0.14679117  0.06151082  0.60383584
   0.24898979  0.52090846  0.00760121
unknown system                          
           1
     7.073767    0.040303    0.245988
    -0.315031    6.086539   -0.346114
     2.995031    0.584496    6.191680
   V    Fe
  17   3
Direct configuration=    19
   0.05892042  0.03734692  0.02658786
   0.59022385  0.59048337 -0.02461728
   0.00073219  0.40549607  0.34034775
   0.36513927  0.37228866  0.38441759
   0.45668045  0.89001601  0.35733751
   0.80230539  0.31610247  0.71061621
   0.46640859  0.21904879  0.70912402
   0.84434108  0.84922760  0.55369283
   0.70581072 -0.01109948 -0.04354236
   0.38065759  0.83116138  0.79145048
   0.20961980  0.79302982  0.25000476
   0.74280204  0.09003649  0.35919450
   0.09529333  0.36510966  0.80982006
   0.87774735  0.69108398  0.13426726
   0.03468011  0.68822780  0.69018679
   0.37092385  0.19051427  0.08399888
   0.60054814  0.55627440  0.50318640
   0.75164106  0.34042615  0.11200574
   0.14736358  0.06185855  0.59987047
   0.25177516  0.51782209  0.00552555
unknown system                          
           1
     7.078231    0.041185    0.224830
    -0.313039    6.086379   -0.357505
     2.978634    0.572870    6.188974
   V    Fe
  17   3
Direct configuration=    20
   0.05842191  0.04189983  0.02203194
   0.59385029  0.59018902 -0.03377332
   0.00437838  0.40204832  0.33730774
   0.36640887  0.39384537  0.38486045
   0.45553539  0.89093601  0.35721793
   0.80384285  0.30116116  0.70876737
   0.47100331  0.21894257  0.70728795
   0.84200306  0.84637724  0.55286891
   0.70859987 -0.01163588 -0.04423970
   0.37557588  0.83221882  0.79995319
   0.19587504  0.78785776  0.25860929
   0.74145069  0.09232864  0.35542138
   0.09026439  0.36795404  0.81149729
   0.87348438  0.69541777  0.14334435
   0.03846067  0.69185274  0.69281756
   0.38224999  0.18984938  0.08625596
   0.59494533  0.55290341  0.50993918
   0.74806916  0.33885643  0.11603079
   0.14907046  0.06289408  0.58797520
   0.26012410  0.50855830 -0.00069846
unknown system                          
           1
     7.087159    0.042948    0.182514
    -0.309055    6.086058   -0.380288
     2.945842    0.549618    6.183562
   V    Fe
  17   3
Direct configuration=    21
   0.05739711  0.05098793  0.01292945
   0.60104815  0.58956320 -0.05206983
   0.01164938  0.39513919  0.33123729
   0.36889830  0.43695314  0.38583607
   0.45324758  0.89277635  0.35697415
   0.80693526  0.27127455  0.70502273
   0.48016550  0.21871917  0.70364560
   0.83733940  0.84067642  0.55119342
   0.71416448 -0.01271367 -0.04561767
   0.36546909  0.83436953  0.81693522
   0.16849257  0.77755954  0.27571162
   0.73873214  0.09689954  0.34787085
   0.08022900  0.37365279  0.81482906
   0.86500709  0.70412163  0.16149360
   0.04600962  0.69910787  0.69812134
   0.40486583  0.18851778  0.09084831
   0.58380034  0.54619253  0.52339953
   0.74096155  0.33573561  0.12405397
   0.15242236  0.06491923  0.56418933
   0.27677924  0.49000268 -0.01312901
unknown system                          
           1
     7.080146    0.041563    0.215753
    -0.312184    6.086310   -0.362393
     2.971600    0.567882    6.187813
   V    Fe
  17   3
Direct configuration=    22
   0.05824522  0.04387709  0.02006516
   0.59547992  0.59011284 -0.03772155
   0.00597136  0.40058741  0.33599091
   0.36701964  0.40310089  0.38492916
   0.45504102  0.89133031  0.35717285
   0.80447939  0.29475658  0.70803772
   0.47301098  0.21891156  0.70646029
   0.84098359  0.84515472  0.55255279
   0.70981478 -0.01185944 -0.04456130
   0.37331976  0.83262425  0.80363177
   0.18983514  0.78557765  0.26244386
   0.74089222  0.09333023  0.35380877
   0.08807675  0.36916108  0.81224726
   0.87159008  0.69722811  0.14724438
   0.04009865  0.69340047  0.69388903
   0.38715762  0.18956580  0.08711872
   0.59246043  0.55141549  0.51289659
   0.74648831  0.33815802  0.11779352
   0.14988578  0.06340043  0.58286669
   0.26376338  0.50462152 -0.00339162
unknown system                          
           1
     7.068497    0.038317    0.194567
    -0.312971    6.097811   -0.377900
     2.947965    0.551719    6.189927
   V    Fe
  17   3
Direct configuration=    23
   0.06111504  0.04623282  0.01578890
   0.59680875  0.59195389 -0.04035785
   0.00628761  0.39705162  0.33706801
   0.36667387  0.41279277  0.38367376
   0.45370838  0.89151463  0.35937932
   0.80789644  0.28993836  0.70474438
   0.47221577  0.21555042  0.70402224
   0.83560888  0.84260720  0.55667102
   0.71314893 -0.01536888 -0.04602421
   0.37021331  0.83467174  0.80715541
   0.19074133  0.78548939  0.25969037
   0.73966722  0.09491036  0.35361722
   0.08600677  0.37007534  0.81259771
   0.87132435  0.69846904  0.14550398
   0.04061732  0.69646863  0.69679891
   0.38780111  0.18364952  0.09361703
   0.58940136  0.55039697  0.51945043
   0.74432903  0.34107003  0.11953954
   0.15170574  0.06478409  0.57643711
   0.26834279  0.50219708 -0.00589828
unknown system                          
           1
     7.051923    0.033700    0.164425
    -0.314091    6.114174   -0.399963
     2.914338    0.528722    6.192936
   V    Fe
  17   3
Direct configuration=    24
   0.06517396  0.04956221  0.00972860
   0.59868377  0.59455824 -0.04409480
   0.00674812  0.39203572  0.33858946
   0.36616181  0.42654832  0.38191966
   0.45182291  0.89178423  0.36251185
   0.81274920  0.28308616  0.70006025
   0.47107639  0.21076886  0.70053908
   0.82798473  0.83900413  0.56249367
   0.71789121 -0.02035601 -0.04810076
   0.36580764  0.83759108  0.81215915
   0.19201701  0.78535397  0.25577804
   0.73792074  0.09715270  0.35334419
   0.08306149  0.37137405  0.81308920
   0.87093558  0.70022423  0.14303147
   0.04136597  0.70083593  0.70095083
   0.38875830  0.17527440  0.10284281
   0.58508285  0.54897468  0.52875390
   0.74126099  0.34521037  0.12202244
   0.15426100  0.06672488  0.56730558
   0.27485034  0.49874685 -0.00944961
unknown system                          
           1
     6.963211    0.053380    0.152558
    -0.291914    6.098392   -0.417715
     2.870058    0.514146    6.139013
   V    Fe
  17   3
Direct configuration=    25
   0.06714947  0.05258633  0.00929847
   0.59895896  0.59364992 -0.04414748
   0.00907218  0.38988135  0.33800603
   0.36524613  0.43163731  0.38007359
   0.45139178  0.88874361  0.36705328
   0.81261451  0.28064442  0.69879256
   0.46704519  0.20690204  0.70062721
   0.82153439  0.83629972  0.56464174
   0.72073592 -0.02210196 -0.04972428
   0.36451659  0.83779347  0.81157352
   0.19380051  0.78507389  0.25053896
   0.74160502  0.09991381  0.35005807
   0.08318361  0.37592022  0.81472120
   0.87294172  0.69858728  0.13989020
   0.04223713  0.70354789  0.70090616
   0.38596395  0.17077139  0.10768456
   0.58357145  0.54814785  0.53560966
   0.74104056  0.35122841  0.12217497
   0.15366031  0.06883015  0.56443878
   0.27734461  0.49639790 -0.00874221
unknown system                          
           1
     6.955076    0.055185    0.151470
    -0.289880    6.096944   -0.419342
     2.865998    0.512809    6.134068
   V    Fe
  17   3
Direct configuration=    26
   0.06733147  0.05286361  0.00925981
   0.59898485  0.59356634 -0.04415258
   0.00928858  0.38968250  0.33795173
   0.36515864  0.43210508  0.37990417
   0.45135416  0.88846494  0.36747246
   0.81260266  0.28041985  0.69867456
   0.46667267  0.20654790  0.70063372
   0.82093743  0.83605350  0.56483885
   0.72100020 -0.02226359 -0.04987461
   0.36439654  0.83781240  0.81151924
   0.19396480  0.78504680  0.25005445
   0.74194497  0.10016595  0.34975535
   0.08319353  0.37633829  0.81487351
   0.87312775  0.69843572  0.13959939
   0.04231687  0.70379688  0.70090292
   0.38570768  0.17035909  0.10813080
   0.58343328  0.54807335  0.53624344
   0.74101772  0.35178165  0.12219080
   0.15360298  0.06902342  0.56417411
   0.27757721  0.49618132 -0.00867713
unknown system                          
           1
     6.935553    0.074676    0.146744
    -0.271581    6.131332   -0.437113
     2.855197    0.506154    6.137606
   V    Fe
  17   3
Direct configuration=    27
   0.06814341  0.05511487  0.00980354
   0.59917287  0.59273590 -0.04341471
   0.01109822  0.38873653  0.33734980
   0.36460210  0.43418492  0.37912515
   0.45207390  0.88551446  0.37050685
   0.81180943  0.27927413  0.69846035
   0.46415478  0.20409202  0.70062568
   0.81654538  0.83432563  0.56505941
   0.72232769 -0.02275403 -0.05068334
   0.36385219  0.83719236  0.81012375
   0.19440571  0.78512192  0.24747825
   0.74493329  0.10228032  0.34712385
   0.08364087  0.38038473  0.81591568
   0.87473921  0.69714740  0.13819757
   0.04329888  0.70544266  0.69941795
   0.38386926  0.16806480  0.11071438
   0.58265636  0.54692000  0.54026825
   0.74112057  0.35579992  0.12207503
   0.15252218  0.07053507  0.56323570
   0.27864770  0.49434140 -0.00790813
unknown system                          
           1
     6.888164    0.121987    0.135274
    -0.227163    6.214801   -0.480247
     2.828983    0.490001    6.146194
   V    Fe
  17   3
Direct configuration=    28
   0.07010009  0.06054284  0.01113766
   0.59964156  0.59073231 -0.04162964
   0.01550803  0.38643776  0.33588570
   0.36322459  0.43920642  0.37724762
   0.45386682  0.87839662  0.37785057
   0.80988919  0.27651489  0.69793260
   0.45805128  0.19818515  0.70058788
   0.80587548  0.83019102  0.56557856
   0.72555902 -0.02395025 -0.05264681
   0.36252733  0.83569658  0.80673380
   0.19546648  0.78529280  0.24122941
   0.75217306  0.10735224  0.34075659
   0.08469545  0.39014918  0.81846981
   0.87866651  0.69402187  0.13479058
   0.04566619  0.70940263  0.69582687
   0.37942907  0.16254948  0.11696561
   0.58079465  0.54415359  0.55002422
   0.74133204  0.36549597  0.12181945
   0.14987367  0.07418910  0.56096735
   0.28127350  0.48989480 -0.00605284
unknown system                          
           1
     6.870252    0.145388    0.133541
    -0.205503    6.242981   -0.497287
     2.821730    0.485348    6.151128
   V    Fe
  17   3
Direct configuration=    29
   0.07008021  0.06319029  0.01060272
   0.60009632  0.59191238 -0.04025099
   0.01657301  0.38710163  0.33566181
   0.36336677  0.43957156  0.37827918
   0.45736854  0.87573264  0.37871863
   0.80955208  0.27507642  0.69879856
   0.45803468  0.19561826  0.69823074
   0.80158672  0.82890594  0.56378048
   0.72582938 -0.02404281 -0.05252061
   0.36080569  0.83399684  0.80684432
   0.19366418  0.78616147  0.24217580
   0.75318394  0.11027320  0.33902873
   0.08437329  0.39407312  0.81876034
   0.87971470  0.69491539  0.13601400
   0.04702099  0.71248149  0.69166428
   0.37957471  0.16141696  0.11893206
   0.57996771  0.53959304  0.55184510
   0.74125818  0.36688580  0.12193506
   0.14847807  0.07449225  0.56111984
   0.28308484  0.48709913 -0.00614503
unknown system                          
           1
     6.816516    0.215590    0.128341
    -0.140522    6.327522   -0.548405
     2.799972    0.471387    6.165929
   V    Fe
  17   3
Direct configuration=    30
   0.06998393  0.07109504  0.00901894
   0.60145455  0.59543428 -0.03610954
   0.01976650  0.38907139  0.33499535
   0.36379399  0.44066270  0.38137415
   0.46793833  0.86773958  0.38130006
   0.80856045  0.27078675  0.70138375
   0.45800812  0.18794780  0.69114559
   0.78869704  0.82511321  0.55838180
   0.72664422 -0.02432199 -0.05214306
   0.35565016  0.82894102  0.80716331
   0.18823634  0.78877823  0.24501968
   0.75617921  0.11898021  0.33387072
   0.08335478  0.40579504  0.81966069
   0.88286077  0.69757451  0.13968786
   0.05103841  0.72165039  0.67920883
   0.38003561  0.15803793  0.12481837
   0.57754725  0.52598806  0.55726964
   0.74101854  0.37103719  0.12229203
   0.14427743  0.07541375  0.56157953
   0.28856838  0.47872990 -0.00644271
unknown system                          
           1
     6.769501    0.231754    0.125643
    -0.123244    6.299955   -0.559896
     2.780201    0.462638    6.134729
   V    Fe
  17   3
Direct configuration=    31
   0.07013746  0.07374172  0.00645057
   0.60216839  0.59884001 -0.03510010
   0.02062895  0.39142114  0.33567842
   0.36372394  0.44000384  0.38305656
   0.47255291  0.86575924  0.37981901
   0.80867839  0.26928467  0.70308930
   0.45768738  0.18367752  0.68883060
   0.78409030  0.82432884  0.55629793
   0.72637875 -0.02512129 -0.05189143
   0.35282584  0.82663778  0.80922188
   0.18689159  0.79005822  0.24604541
   0.75630246  0.12037315  0.33348793
   0.08321088  0.40920936  0.81939255