  20  20   0   0
  0.1295360E+02  0.1026483E-08  0.5095419E-09  0.4953236E-09  0.5000000E-15
  1.000000000000000E-004
  CAR 
 unknown system                          
      8.74915333     -1.44216228  301      6.46307563      1.00000000
     -1.442  0.0000E+00  0.0000E+00
     -1.408  0.0000E+00  0.0000E+00
     -1.374  0.0000E+00  0.0000E+00
     -1.340  0.0000E+00  0.0000E+00
     -1.306  0.0000E+00  0.0000E+00
     -1.272  0.0000E+00  0.0000E+00
     -1.238  0.0000E+00  0.0000E+00
     -1.204  0.0000E+00  0.0000E+00
     -1.170  0.0000E+00  0.0000E+00
     -1.136  0.0000E+00  0.0000E+00
     -1.102  0.0000E+00  0.0000E+00
     -1.068  0.0000E+00  0.0000E+00
     -1.035  0.0000E+00  0.0000E+00
     -1.001  0.2832E-16  0.9622E-18
     -0.967  0.1155E-14  0.4019E-16
     -0.933  0.3846E-13  0.1347E-14
     -0.899  0.1020E-11  0.3599E-13
     -0.865  0.2153E-10  0.7672E-12
     -0.831  0.3618E-09  0.1306E-10
     -0.797  0.4844E-08  0.1776E-09
     -0.763  0.5165E-07  0.1932E-08
     -0.729  0.4388E-06  0.1684E-07
     -0.695  0.2970E-05  0.1177E-06
     -0.661  0.1602E-04  0.6618E-06
     -0.627  0.6885E-04  0.3001E-05
     -0.593  0.2359E-03  0.1101E-04
     -0.559  0.6444E-03  0.3290E-04
     -0.525  0.1403E-02  0.8057E-04
     -0.491  0.2436E-02  0.1633E-03
     -0.457  0.3373E-02  0.2779E-03
     -0.423  0.3724E-02  0.4044E-03
     -0.389  0.3278E-02  0.5158E-03
     -0.355  0.2301E-02  0.5940E-03
     -0.321  0.1290E-02  0.6378E-03
     -0.287  0.5892E-03  0.6578E-03
     -0.253  0.2744E-03  0.6671E-03
     -0.219  0.3254E-03  0.6782E-03
     -0.185  0.8282E-03  0.7063E-03
     -0.151  0.1983E-02  0.7737E-03
     -0.117  0.3838E-02  0.9041E-03
     -0.083  0.5929E-02  0.1105E-02
     -0.049  0.7303E-02  0.1354E-02
     -0.015  0.7173E-02  0.1597E-02
      0.019  0.5618E-02  0.1788E-02
      0.053  0.3509E-02  0.1907E-02
      0.087  0.1747E-02  0.1967E-02
      0.121  0.6937E-03  0.1990E-02
      0.154  0.2196E-03  0.1998E-02
      0.188  0.5540E-04  0.2000E-02
      0.222  0.1114E-04  0.2000E-02
      0.256  0.1785E-05  0.2000E-02
      0.290  0.2280E-06  0.2000E-02
      0.324  0.2319E-07  0.2000E-02
      0.358  0.1879E-08  0.2000E-02
      0.392  0.1213E-09  0.2000E-02
      0.426  0.6704E-11  0.2000E-02
      0.460  0.1076E-10  0.2000E-02
      0.494  0.1865E-09  0.2000E-02
      0.528  0.2639E-08  0.2000E-02
      0.562  0.2973E-07  0.2000E-02
      0.596  0.2668E-06  0.2000E-02
      0.630  0.1908E-05  0.2000E-02
      0.664  0.1087E-04  0.2000E-02
      0.698  0.4938E-04  0.2002E-02
      0.732  0.1787E-03  0.2008E-02
      0.766  0.5158E-03  0.2026E-02
      0.800  0.1187E-02  0.2066E-02
      0.834  0.2178E-02  0.2140E-02
      0.868  0.3195E-02  0.2249E-02
      0.902  0.3774E-02  0.2377E-02
      0.936  0.3708E-02  0.2503E-02
      0.970  0.3411E-02  0.2619E-02
      1.004  0.3797E-02  0.2748E-02
      1.038  0.5661E-02  0.2940E-02
      1.072  0.8947E-02  0.3244E-02
      1.106  0.1243E-01  0.3666E-02
      1.140  0.1429E-01  0.4151E-02
      1.174  0.1343E-01  0.4608E-02
      1.208  0.1039E-01  0.4961E-02
      1.242  0.6888E-02  0.5195E-02
      1.276  0.4478E-02  0.5347E-02
      1.309  0.3627E-02  0.5470E-02
      1.343  0.3733E-02  0.5597E-02
      1.377  0.3839E-02  0.5727E-02
      1.411  0.3383E-02  0.5842E-02
      1.445  0.2489E-02  0.5927E-02
      1.479  0.1722E-02  0.5985E-02
      1.513  0.1663E-02  0.6042E-02
      1.547  0.2622E-02  0.6131E-02
      1.581  0.4450E-02  0.6282E-02
      1.615  0.6406E-02  0.6500E-02
      1.649  0.7431E-02  0.6752E-02
      1.683  0.6884E-02  0.6986E-02
      1.717  0.5087E-02  0.7159E-02
      1.751  0.2998E-02  0.7261E-02
      1.785  0.1409E-02  0.7309E-02
      1.819  0.5304E-03  0.7327E-02
      1.853  0.1732E-03  0.7332E-02
      1.887  0.1062E-03  0.7336E-02
      1.921  0.2485E-03  0.7344E-02
      1.955  0.6879E-03  0.7368E-02
      1.989  0.1601E-02  0.7422E-02
      2.023  0.3114E-02  0.7528E-02
      2.057  0.5174E-02  0.7704E-02
      2.091  0.7544E-02  0.7960E-02
      2.125  0.9879E-02  0.8296E-02
      2.159  0.1178E-01  0.8696E-02
      2.193  0.1292E-01  0.9135E-02
      2.227  0.1329E-01  0.9586E-02
      2.261  0.1340E-01  0.1004E-01
      2.295  0.1437E-01  0.1053E-01
      2.329  0.1742E-01  0.1112E-01
      2.363  0.2298E-01  0.1190E-01
      2.397  0.2970E-01  0.1291E-01
      2.431  0.3487E-01  0.1410E-01
      2.465  0.3623E-01  0.1533E-01
      2.498  0.3386E-01  0.1648E-01
      2.532  0.3018E-01  0.1750E-01
      2.566  0.2800E-01  0.1845E-01
      2.600  0.2849E-01  0.1942E-01
      2.634  0.3071E-01  0.2046E-01
      2.668  0.3272E-01  0.2158E-01
      2.702  0.3301E-01  0.2270E-01
      2.736  0.3125E-01  0.2376E-01
      2.770  0.2858E-01  0.2473E-01
      2.804  0.2707E-01  0.2565E-01
      2.838  0.2826E-01  0.2661E-01
      2.872  0.3188E-01  0.2769E-01
      2.906  0.3636E-01  0.2893E-01
      2.940  0.4040E-01  0.3030E-01
      2.974  0.4347E-01  0.3178E-01
      3.008  0.4519E-01  0.3331E-01
      3.042  0.4523E-01  0.3485E-01
      3.076  0.4424E-01  0.3635E-01
      3.110  0.4415E-01  0.3785E-01
      3.144  0.4671E-01  0.3944E-01
      3.178  0.5180E-01  0.4120E-01
      3.212  0.5753E-01  0.4315E-01
      3.246  0.6177E-01  0.4525E-01
      3.280  0.6324E-01  0.4740E-01
      3.314  0.6196E-01  0.4950E-01
      3.348  0.5916E-01  0.5151E-01
      3.382  0.5692E-01  0.5345E-01
      3.416  0.5700E-01  0.5538E-01
      3.450  0.5927E-01  0.5740E-01
      3.484  0.6133E-01  0.5948E-01
      3.518  0.6033E-01  0.6153E-01
      3.552  0.5548E-01  0.6341E-01
      3.586  0.4870E-01  0.6507E-01
      3.620  0.4276E-01  0.6652E-01
      3.653  0.3911E-01  0.6785E-01
      3.687  0.3763E-01  0.6913E-01
      3.721  0.3790E-01  0.7042E-01
      3.755  0.4001E-01  0.7178E-01
      3.789  0.4387E-01  0.7327E-01
      3.823  0.4860E-01  0.7492E-01
      3.857  0.5284E-01  0.7671E-01
      3.891  0.5552E-01  0.7860E-01
      3.925  0.5673E-01  0.8052E-01
      3.959  0.5804E-01  0.8250E-01
      3.993  0.6168E-01  0.8459E-01
      4.027  0.6857E-01  0.8692E-01
      4.061  0.7691E-01  0.8953E-01
      4.095  0.8305E-01  0.9236E-01
      4.129  0.8402E-01  0.9521E-01
      4.163  0.7949E-01  0.9791E-01
      4.197  0.7171E-01  0.1003E+00
      4.231  0.6423E-01  0.1025E+00
      4.265  0.6005E-01  0.1046E+00
      4.299  0.5984E-01  0.1066E+00
      4.333  0.6160E-01  0.1087E+00
      4.367  0.6240E-01  0.1108E+00
      4.401  0.6047E-01  0.1129E+00
      4.435  0.5565E-01  0.1148E+00
      4.469  0.4881E-01  0.1164E+00
      4.503  0.4163E-01  0.1178E+00
      4.537  0.3662E-01  0.1191E+00
      4.571  0.3617E-01  0.1203E+00
      4.605  0.4125E-01  0.1217E+00
      4.639  0.5082E-01  0.1234E+00
      4.673  0.6207E-01  0.1255E+00
      4.707  0.7117E-01  0.1280E+00
      4.741  0.7492E-01  0.1305E+00
      4.775  0.7259E-01  0.1330E+00
      4.809  0.6632E-01  0.1352E+00
      4.842  0.5943E-01  0.1372E+00
      4.876  0.5405E-01  0.1391E+00
      4.910  0.5007E-01  0.1408E+00
      4.944  0.4619E-01  0.1423E+00
      4.978  0.4178E-01  0.1438E+00
      5.012  0.3789E-01  0.1451E+00
      5.046  0.3649E-01  0.1463E+00
      5.080  0.3861E-01  0.1476E+00
      5.114  0.4350E-01  0.1491E+00
      5.148  0.4933E-01  0.1508E+00
      5.182  0.5475E-01  0.1526E+00
      5.216  0.5949E-01  0.1546E+00
      5.250  0.6358E-01  0.1568E+00
      5.284  0.6652E-01  0.1591E+00
      5.318  0.6787E-01  0.1614E+00
      5.352  0.6829E-01  0.1637E+00
      5.386  0.6905E-01  0.1660E+00
      5.420  0.7035E-01  0.1684E+00
      5.454  0.7110E-01  0.1708E+00
      5.488  0.7055E-01  0.1732E+00
      5.522  0.6883E-01  0.1756E+00
      5.556  0.6594E-01  0.1778E+00
      5.590  0.6135E-01  0.1799E+00
      5.624  0.5510E-01  0.1818E+00
      5.658  0.4844E-01  0.1834E+00
      5.692  0.4284E-01  0.1849E+00
      5.726  0.3877E-01  0.1862E+00
      5.760  0.3594E-01  0.1874E+00
      5.794  0.3423E-01  0.1886E+00
      5.828  0.3416E-01  0.1897E+00
      5.862  0.3589E-01  0.1909E+00
      5.896  0.3841E-01  0.1923E+00
      5.930  0.4038E-01  0.1936E+00
      5.964  0.4163E-01  0.1950E+00
      5.997  0.4313E-01  0.1965E+00
      6.031  0.4562E-01  0.1981E+00
      6.065  0.4843E-01  0.1997E+00
      6.099  0.4977E-01  0.2014E+00
      6.133  0.4838E-01  0.2030E+00
      6.167  0.4524E-01  0.2046E+00
      6.201  0.4309E-01  0.2060E+00
      6.235  0.4363E-01  0.2075E+00
      6.269  0.4569E-01  0.2091E+00
      6.303  0.4688E-01  0.2107E+00
      6.337  0.4649E-01  0.2122E+00
      6.371  0.4580E-01  0.2138E+00
      6.405  0.4587E-01  0.2154E+00
      6.439  0.4604E-01  0.2169E+00
      6.473  0.4495E-01  0.2184E+00
      6.507  0.4232E-01  0.2199E+00
      6.541  0.3942E-01  0.2212E+00
      6.575  0.3786E-01  0.2225E+00
      6.609  0.3806E-01  0.2238E+00
      6.643  0.3876E-01  0.2251E+00
      6.677  0.3821E-01  0.2264E+00
      6.711  0.3589E-01  0.2276E+00
      6.745  0.3316E-01  0.2288E+00
      6.779  0.3221E-01  0.2299E+00
      6.813  0.3433E-01  0.2310E+00
      6.847  0.3882E-01  0.2323E+00
      6.881  0.4346E-01  0.2338E+00
      6.915  0.4621E-01  0.2354E+00
      6.949  0.4651E-01  0.2370E+00
      6.983  0.4537E-01  0.2385E+00
      7.017  0.4400E-01  0.2400E+00
      7.051  0.4279E-01  0.2415E+00
      7.085  0.4151E-01  0.2429E+00
      7.119  0.4038E-01  0.2442E+00
      7.153  0.4009E-01  0.2456E+00
      7.186  0.4092E-01  0.2470E+00
      7.220  0.4232E-01  0.2484E+00
      7.254  0.4363E-01  0.2499E+00
      7.288  0.4490E-01  0.2514E+00
      7.322  0.4677E-01  0.2530E+00
      7.356  0.4942E-01  0.2547E+00
      7.390  0.5220E-01  0.2565E+00
      7.424  0.5455E-01  0.2583E+00
      7.458  0.5703E-01  0.2603E+00
      7.492  0.6003E-01  0.2623E+00
      7.526  0.6176E-01  0.2644E+00
      7.560  0.5872E-01  0.2664E+00
      7.594  0.4930E-01  0.2681E+00
      7.628  0.3615E-01  0.2693E+00
      7.662  0.2406E-01  0.2701E+00
      7.696  0.1607E-01  0.2707E+00
      7.730  0.1199E-01  0.2711E+00
      7.764  0.9753E-02  0.2714E+00
      7.798  0.7612E-02  0.2717E+00
      7.832  0.5154E-02  0.2718E+00
      7.866  0.2883E-02  0.2719E+00
      7.900  0.1306E-02  0.2720E+00
      7.934  0.4749E-03  0.2720E+00
      7.968  0.1382E-03  0.2720E+00
      8.002  0.3209E-04  0.2720E+00
      8.036  0.5944E-05  0.2720E+00
      8.070  0.8779E-06  0.2720E+00
      8.104  0.1033E-06  0.2720E+00
      8.138  0.9689E-08  0.2720E+00
      8.172  0.7237E-09  0.2720E+00
      8.206  0.4305E-10  0.2720E+00
      8.240  0.2039E-11  0.2720E+00
      8.274  0.7691E-13  0.2720E+00
      8.308  0.2309E-14  0.2720E+00
      8.342  0.5665E-16  0.2720E+00
      8.375  0.0000E+00  0.2720E+00
      8.409  0.0000E+00  0.2720E+00
      8.443  0.0000E+00  0.2720E+00
      8.477  0.0000E+00  0.2720E+00
      8.511  0.0000E+00  0.2720E+00
      8.545  0.0000E+00  0.2720E+00
      8.579  0.0000E+00  0.2720E+00
      8.613  0.0000E+00  0.2720E+00
      8.647  0.0000E+00  0.2720E+00
      8.681  0.0000E+00  0.2720E+00
      8.715  0.0000E+00  0.2720E+00
      8.749  0.0000E+00  0.2720E+00
