   20   20  500    1
  0.1295360E+02  0.1026483E-08  0.5095419E-09  0.4953236E-09  0.5000000E-15
  1.000000000000000E-004
  CAR 
 unknown system                          
    109      4     68
 
  0.0000000E+00  0.0000000E+00  0.0000000E+00  0.1666667E+00
    1       -0.442162   1.000000
    2        2.072369   1.000000
    3        2.234789   1.000000
    4        2.273691   1.000000
    5        2.439320   1.000000
    6        2.607633   1.000000
    7        2.825106   1.000000
    8        3.018037   1.000000
    9        3.051003   1.000000
   10        3.180029   1.000000
   11        3.218720   1.000000
   12        3.341778   1.000000
   13        3.387651   1.000000
   14        3.454905   1.000000
   15        3.485440   1.000000
   16        3.659303   1.000000
   17        3.664449   1.000000
   18        3.670604   1.000000
   19        3.679216   1.000000
   20        4.023057   1.000000
   21        4.075189   1.000000
   22        4.100427   1.000000
   23        4.128940   1.000000
   24        4.139577   1.000000
   25        4.160432   1.000000
   26        4.168689   1.000000
   27        4.168770   1.000000
   28        4.280271   1.000000
   29        4.337139   1.000000
   30        4.480765   1.000000
   31        4.526739   1.000000
   32        4.594063   1.000000
   33        4.646105   1.000000
   34        4.669439   1.000000
   35        4.710247   1.000000
   36        5.065014   1.000000
   37        5.065693   1.000000
   38        5.131171   1.000000
   39        5.253084   1.000000
   40        5.311561   1.000000
   41        5.424396   1.000000
   42        5.516727   1.000000
   43        5.534070   1.000000
   44        5.634545   1.000000
   45        5.682656   1.000000
   46        5.704597   1.000000
   47        5.760306   1.000000
   48        5.885558   1.000000
   49        6.034190   1.000000
   50        6.079837   1.000000
   51        6.098938   1.000000
   52        6.114453   1.000000
   53        6.266969   0.997226
   54        6.411888   0.765438
   55        6.431624   0.671763
   56        6.630970   0.008789
   57        6.674743   0.001379
   58        6.771054   0.000007
   59        6.936107   0.000000
   60        7.147102   0.000000
   61        7.183303   0.000000
   62        7.237157   0.000000
   63        7.300184   0.000000
   64        7.391354   0.000000
   65        7.452945   0.000000
   66        7.519476   0.000000
   67        7.545376   0.000000
   68        7.647697   0.000000
 
  0.0000000E+00  0.5000000E+00  0.0000000E+00  0.1666667E+00
    1        0.890937   1.000000
    2        1.360926   1.000000
    3        2.589559   1.000000
    4        2.613446   1.000000
    5        2.631091   1.000000
    6        2.702793   1.000000
    7        2.876594   1.000000
    8        2.962423   1.000000
    9        3.039930   1.000000
   10        3.142893   1.000000
   11        3.177192   1.000000
   12        3.257201   1.000000
   13        3.268686   1.000000
   14        3.273056   1.000000
   15        3.452707   1.000000
   16        3.491624   1.000000
   17        3.492991   1.000000
   18        3.575687   1.000000
   19        3.722932   1.000000
   20        3.759634   1.000000
   21        3.835577   1.000000
   22        3.868892   1.000000
   23        3.888823   1.000000
   24        4.015040   1.000000
   25        4.028084   1.000000
   26        4.101543   1.000000
   27        4.171824   1.000000
   28        4.308806   1.000000
   29        4.371002   1.000000
   30        4.433278   1.000000
   31        4.609853   1.000000
   32        4.691142   1.000000
   33        4.749332   1.000000
   34        4.852772   1.000000
   35        4.897132   1.000000
   36        5.052630   1.000000
   37        5.088817   1.000000
   38        5.142298   1.000000
   39        5.235149   1.000000
   40        5.243324   1.000000
   41        5.417554   1.000000
   42        5.422981   1.000000
   43        5.484810   1.000000
   44        5.494269   1.000000
   45        5.513165   1.000000
   46        5.556149   1.000000
   47        5.583607   1.000000
   48        5.855797   1.000000
   49        5.987334   1.000000
   50        6.105893   1.000000
   51        6.124059   0.999999
   52        6.151913   0.999995
   53        6.268723   0.997007
   54        6.387312   0.858019
   55        6.473912   0.439098
   56        6.604905   0.022440
   57        6.744276   0.000035
   58        6.834383   0.000000
   59        6.886830   0.000000
   60        6.890109   0.000000
   61        6.950736   0.000000
   62        7.126980   0.000000
   63        7.213360   0.000000
   64        7.244897   0.000000
   65        7.262191   0.000000
   66        7.542663   0.000000
   67        7.545236   0.000000
   68        7.574807   0.000000
 
  0.0000000E+00  0.0000000E+00  0.3333333E+00  0.3333333E+00
    1       -0.052036   1.000000
    2        1.149482   1.000000
    3        2.418352   1.000000
    4        2.425526   1.000000
    5        2.463497   1.000000
    6        2.735229   1.000000
    7        2.880769   1.000000
    8        2.945439   1.000000
    9        2.981989   1.000000
   10        3.161564   1.000000
   11        3.226747   1.000000
   12        3.267607   1.000000
   13        3.320439   1.000000
   14        3.442466   1.000000
   15        3.525957   1.000000
   16        3.559481   1.000000
   17        3.831167   1.000000
   18        3.875255   1.000000
   19        3.893418   1.000000
   20        3.919242   1.000000
   21        4.033444   1.000000
   22        4.074479   1.000000
   23        4.087208   1.000000
   24        4.131432   1.000000
   25        4.189663   1.000000
   26        4.239617   1.000000
   27        4.305273   1.000000
   28        4.429237   1.000000
   29        4.469085   1.000000
   30        4.687216   1.000000
   31        4.707465   1.000000
   32        4.733420   1.000000
   33        4.800434   1.000000
   34        4.821271   1.000000
   35        4.918599   1.000000
   36        4.961813   1.000000
   37        4.973789   1.000000
   38        5.138365   1.000000
   39        5.175042   1.000000
   40        5.223517   1.000000
   41        5.253087   1.000000
   42        5.298322   1.000000
   43        5.317594   1.000000
   44        5.416809   1.000000
   45        5.457274   1.000000
   46        5.551809   1.000000
   47        5.615655   1.000000
   48        5.745099   1.000000
   49        5.776288   1.000000
   50        5.901427   1.000000
   51        6.090901   1.000000
   52        6.219753   0.999710
   53        6.263631   0.997603
   54        6.269606   0.996891
   55        6.428591   0.687116
   56        6.492187   0.340280
   57        6.631783   0.008519
   58        6.848267   0.000000
   59        6.920171   0.000000
   60        7.025121   0.000000
   61        7.166533   0.000000
   62        7.326655   0.000000
   63        7.347191   0.000000
   64        7.390447   0.000000
   65        7.403596   0.000000
   66        7.522328   0.000000
   67        7.546664   0.000000
   68        7.749153   0.000000
 
  0.0000000E+00  0.5000000E+00  0.3333333E+00  0.3333333E+00
    1        1.108801   1.000000
    2        1.637788   1.000000
    3        2.162413   1.000000
    4        2.375230   1.000000
    5        2.506587   1.000000
    6        2.658805   1.000000
    7        2.721460   1.000000
    8        2.879825   1.000000
    9        3.024361   1.000000
   10        3.054819   1.000000
   11        3.148360   1.000000
   12        3.237698   1.000000
   13        3.330738   1.000000
   14        3.341311   1.000000
   15        3.416830   1.000000
   16        3.485458   1.000000
   17        3.515067   1.000000
   18        3.633805   1.000000
   19        3.776122   1.000000
   20        3.790907   1.000000
   21        3.956190   1.000000
   22        3.967760   1.000000
   23        4.072732   1.000000
   24        4.077993   1.000000
   25        4.191855   1.000000
   26        4.300862   1.000000
   27        4.348437   1.000000
   28        4.350821   1.000000
   29        4.385211   1.000000
   30        4.441725   1.000000
   31        4.590618   1.000000
   32        4.667725   1.000000
   33        4.722687   1.000000
   34        4.755668   1.000000
   35        4.771211   1.000000
   36        4.863556   1.000000
   37        4.915209   1.000000
   38        5.154230   1.000000
   39        5.290002   1.000000
   40        5.323942   1.000000
   41        5.378599   1.000000
   42        5.419734   1.000000
   43        5.429412   1.000000
   44        5.547615   1.000000
   45        5.577952   1.000000
   46        5.668929   1.000000
   47        5.877631   1.000000
   48        5.919034   1.000000
   49        6.000460   1.000000
   50        6.007832   1.000000
   51        6.111490   1.000000
   52        6.297324   0.990463
   53        6.342195   0.956321
   54        6.409198   0.776953
   55        6.502690   0.287661
   56        6.565048   0.074636
   57        6.657460   0.002989
   58        6.708424   0.000260
   59        6.846561   0.000000
   60        6.940873   0.000000
   61        7.033122   0.000000
   62        7.044735   0.000000
   63        7.087271   0.000000
   64        7.243361   0.000000
   65        7.406344   0.000000
   66        7.470974   0.000000
   67        7.536160   0.000000
   68        7.550132   0.000000
