       N       E                     dE             d eps       ncg     rms          rms(c)
DAV:   1     0.726487359946E+03    0.72649E+03   -0.23761E+04   544   0.114E+03
DAV:   2    -0.490983686250E+01   -0.73140E+03   -0.70109E+03   544   0.332E+02
DAV:   3    -0.135838832291E+03   -0.13093E+03   -0.12223E+03   912   0.155E+02
DAV:   4    -0.151227296740E+03   -0.15388E+02   -0.14546E+02   896   0.695E+01
DAV:   5    -0.152281752669E+03   -0.10545E+01   -0.10110E+01   912   0.144E+01    0.578E+01
DAV:   6    -0.190694744399E+03   -0.38413E+02   -0.48106E+02  1072   0.185E+02    0.761E+01
DAV:   7    -0.142611415160E+03    0.48083E+02   -0.40519E+02  1016   0.144E+02    0.216E+01
DAV:   8    -0.163764260580E+03   -0.21153E+02   -0.21665E+02  1040   0.113E+02    0.471E+01
DAV:   9    -0.140776725495E+03    0.22988E+02   -0.12832E+02   968   0.918E+01    0.148E+01
DAV:  10    -0.140943308170E+03   -0.16658E+00   -0.22636E+01  1040   0.350E+01    0.112E+01
DAV:  11    -0.140760343105E+03    0.18297E+00   -0.14648E+00   848   0.102E+01    0.978E+00
DAV:  12    -0.140638400518E+03    0.12194E+00   -0.12864E+00  1016   0.103E+01    0.754E+00
DAV:  13    -0.140509508553E+03    0.12889E+00   -0.10303E+00  1056   0.911E+00    0.583E+00
DAV:  14    -0.140461327158E+03    0.48181E-01   -0.15048E+00  1040   0.106E+01    0.511E+00
DAV:  15    -0.140384259631E+03    0.77068E-01   -0.12453E+00  1016   0.102E+01    0.357E+00
DAV:  16    -0.140391771314E+03   -0.75117E-02   -0.66385E-01   984   0.720E+00    0.307E+00
DAV:  17    -0.140330029871E+03    0.61741E-01   -0.31924E-01   872   0.454E+00    0.140E+00
DAV:  18    -0.140352195385E+03   -0.22166E-01   -0.21964E-01   912   0.381E+00    0.179E+00
DAV:  19    -0.140326747701E+03    0.25448E-01   -0.11142E-01   860   0.291E+00    0.827E-01
DAV:  20    -0.140325454438E+03    0.12933E-02   -0.24911E-02   936   0.117E+00    0.402E-01
DAV:  21    -0.140325331594E+03    0.12284E-03   -0.13266E-02  1064   0.863E-01    0.360E-01
DAV:  22    -0.140325019973E+03    0.31162E-03   -0.10632E-02  1088   0.941E-01    0.300E-01
DAV:  23    -0.140325075792E+03   -0.55819E-04   -0.27545E-03  1032   0.412E-01    0.340E-01
DAV:  24    -0.140324762703E+03    0.31309E-03   -0.74909E-04  1048   0.273E-01    0.218E-01
DAV:  25    -0.140324561664E+03    0.20104E-03   -0.93667E-04  1088   0.246E-01    0.672E-02
DAV:  26    -0.140324558411E+03    0.32528E-05   -0.20548E-04   880   0.110E-01    0.441E-02
DAV:  27    -0.140324550104E+03    0.83072E-05   -0.60198E-05   656   0.699E-02
   1 F= -.14032455E+03 E0= -.14026588E+03  d E =-.140325E+03
       N       E                     dE             d eps       ncg     rms          rms(c)
DAV:   1    -0.251373814945E+03   -0.11105E+03   -0.41785E+03   608   0.442E+02    0.116E+02
DAV:   2    -0.423485097994E+03   -0.17211E+03   -0.41638E+03   948   0.221E+02    0.118E+02
DAV:   3    -0.170449776994E+03    0.25304E+03   -0.24486E+03   992   0.230E+02    0.790E+01
DAV:   4    -0.199054554227E+03   -0.28605E+02   -0.17408E+03   976   0.222E+02    0.615E+01
DAV:   5    -0.158455213224E+03    0.40599E+02   -0.35995E+02   968   0.991E+01    0.439E+01
DAV:   6    -0.149768674619E+03    0.86865E+01   -0.11658E+02   960   0.545E+01    0.324E+01
DAV:   7    -0.147449219025E+03    0.23195E+01   -0.39518E+01  1000   0.350E+01    0.322E+01
DAV:   8    -0.144321886692E+03    0.31273E+01   -0.22885E+01  1016   0.270E+01    0.272E+01
DAV:   9    -0.143701308230E+03    0.62058E+00   -0.26226E+00   944   0.820E+00    0.259E+01
DAV:  10    -0.143365626487E+03    0.33568E+00   -0.23702E-01   968   0.241E+00    0.249E+01
DAV:  11    -0.146277851491E+03   -0.29122E+01   -0.28228E+01  1064   0.283E+01    0.282E+01
DAV:  12    -0.145702060809E+03    0.57579E+00   -0.37704E+01  1056   0.370E+01    0.283E+01
DAV:  13    -0.144317205767E+03    0.13849E+01   -0.53939E+01  1088   0.384E+01    0.259E+01
DAV:  14    -0.143411025351E+03    0.90618E+00   -0.37618E+01  1088   0.316E+01    0.248E+01
DAV:  15    -0.141880905235E+03    0.15301E+01   -0.11269E+01   944   0.169E+01    0.182E+01
DAV:  16    -0.140991800057E+03    0.88911E+00   -0.33574E+00  1072   0.873E+00    0.103E+01
DAV:  17    -0.140864968516E+03    0.12683E+00   -0.55481E+00  1080   0.111E+01    0.829E+00
DAV:  18    -0.140661040735E+03    0.20393E+00   -0.30471E+00  1080   0.883E+00    0.421E+00
DAV:  19    -0.140874236086E+03   -0.21320E+00   -0.18256E+00  1088   0.634E+00    0.793E+00
DAV:  20    -0.140779824995E+03    0.94411E-01   -0.30558E-01   984   0.293E+00    0.724E+00
DAV:  21    -0.140674709450E+03    0.10512E+00   -0.14672E-01  1032   0.191E+00    0.590E+00
DAV:  22    -0.140595232681E+03    0.79477E-01   -0.15393E-01  1088   0.179E+00    0.370E+00
DAV:  23    -0.140565253896E+03    0.29979E-01   -0.89820E-02  1032   0.136E+00    0.241E+00
DAV:  24    -0.140550446180E+03    0.14808E-01   -0.55171E-02  1008   0.110E+00    0.144E+00
DAV:  25    -0.140541145483E+03    0.93007E-02   -0.40542E-02   992   0.956E-01    0.572E-01
DAV:  26    -0.140541083886E+03    0.61598E-04   -0.49490E-03   960   0.350E-01    0.441E-01
DAV:  27    -0.140540769093E+03    0.31479E-03   -0.16304E-03   976   0.190E-01    0.344E-01
DAV:  28    -0.140540573423E+03    0.19567E-03   -0.16314E-03   952   0.185E-01    0.269E-01
DAV:  29    -0.140540217250E+03    0.35617E-03   -0.15243E-03  1008   0.186E-01    0.113E-01
DAV:  30    -0.140540196301E+03    0.20949E-04   -0.50459E-04   928   0.112E-01    0.819E-02
DAV:  31    -0.140540163424E+03    0.32877E-04   -0.18976E-04   936   0.757E-02    0.431E-02
DAV:  32    -0.140540158773E+03    0.46511E-05   -0.37490E-05   464   0.406E-02
   2 F= -.14054016E+03 E0= -.14041649E+03  d E =-.215609E+00
       N       E                     dE             d eps       ncg     rms          rms(c)
DAV:   1    -0.195130810613E+03   -0.54591E+02   -0.95489E+02   544   0.204E+02    0.701E+01
DAV:   2    -0.410925353729E+03   -0.21579E+03   -0.21336E+03  1084   0.297E+02    0.327E+02
DAV:   3    -0.367532286616E+03    0.43393E+02   -0.65086E+02   928   0.124E+02    0.129E+02
DAV:   4    -0.158896842630E+03    0.20864E+03   -0.54424E+02   888   0.113E+02    0.449E+01
DAV:   5    -0.157128009148E+03    0.17688E+01   -0.33030E+02  1024   0.101E+02    0.308E+01
DAV:   6    -0.160989007787E+03   -0.38610E+01   -0.13663E+02  1040   0.660E+01    0.405E+01
DAV:   7    -0.156061523129E+03    0.49275E+01   -0.28926E+01   952   0.348E+01    0.336E+01
DAV:   8    -0.151025590170E+03    0.50359E+01   -0.29621E+01  1064   0.261E+01    0.131E+01
DAV:   9    -0.151480808026E+03   -0.45522E+00   -0.11956E+01  1088   0.204E+01    0.151E+01
DAV:  10    -0.151300503317E+03    0.18030E+00   -0.14597E+00   992   0.837E+00    0.138E+01
DAV:  11    -0.151081557451E+03    0.21895E+00   -0.53601E-01  1080   0.521E+00    0.122E+01
DAV:  12    -0.150831567695E+03    0.24999E+00   -0.13114E+00  1088   0.701E+00    0.898E+00
DAV:  13    -0.150689741138E+03    0.14183E+00   -0.86273E-01  1016   0.558E+00    0.723E+00
DAV:  14    -0.150664137030E+03    0.25604E-01   -0.43223E-01  1088   0.393E+00    0.616E+00
DAV:  15    -0.150662734863E+03    0.14022E-02   -0.10244E-01   936   0.215E+00    0.602E+00
DAV:  16    -0.150654931491E+03    0.78034E-02   -0.11420E-01  1088   0.252E+00    0.572E+00
DAV:  17    -0.150666671982E+03   -0.11740E-01   -0.12401E-01  1088   0.227E+00    0.577E+00
DAV:  18    -0.150658378625E+03    0.82934E-02   -0.25419E-02  1080   0.123E+00    0.541E+00
DAV:  19    -0.150644861628E+03    0.13517E-01   -0.45662E-02  1088   0.142E+00    0.471E+00
DAV:  20    -0.150644602488E+03    0.25914E-03   -0.67706E-03   912   0.551E-01    0.429E+00
DAV:  21    -0.150642940084E+03    0.16624E-02   -0.51029E-03   944   0.476E-01    0.383E+00
DAV:  22    -0.150642276125E+03    0.66396E-03   -0.34844E-03   928   0.361E-01    0.354E+00
DAV:  23    -0.150641827066E+03    0.44906E-03   -0.67301E-04   856   0.182E-01    0.315E+00
DAV:  24    -0.150641493017E+03    0.33405E-03   -0.16949E-03   992   0.251E-01    0.278E+00
DAV:  25    -0.150641083440E+03    0.40958E-03   -0.43691E-04   880   0.138E-01    0.225E+00
DAV:  26    -0.150640885271E+03    0.19817E-03   -0.78499E-04   888   0.170E-01    0.188E+00
DAV:  27    -0.150640718142E+03    0.16713E-03   -0.26607E-04   912   0.116E-01    0.157E+00
DAV:  28    -0.150640641567E+03    0.76575E-04   -0.14012E-04   864   0.755E-02    0.131E+00
DAV:  29    -0.150640472471E+03    0.16910E-03   -0.45878E-04   896   0.137E-01    0.562E-01
DAV:  30    -0.150640443244E+03    0.29226E-04   -0.18395E-04   872   0.896E-02    0.298E-01
DAV:  31    -0.150640422115E+03    0.21129E-04   -0.74246E-05   752   0.581E-02    0.173E-01
DAV:  32    -0.150640416977E+03    0.51389E-05   -0.18475E-05   368   0.325E-02
   3 F= -.15064042E+03 E0= -.15054654E+03  d E =-.103159E+02
       N       E                     dE             d eps       ncg     rms          rms(c)
DAV:   1    -0.150794387973E+03   -0.15397E+00   -0.27630E+00   552   0.123E+01    0.431E+00
DAV:   2    -0.154375776602E+03   -0.35814E+01   -0.22948E+01  1088   0.356E+01    0.227E+01
DAV:   3    -0.150575310084E+03    0.38005E+01   -0.19038E+01  1088   0.320E+01    0.181E+00
DAV:   4    -0.150754346630E+03   -0.17904E+00   -0.18908E+00   928   0.806E+00    0.317E+00
DAV:   5    -0.150688465052E+03    0.65882E-01   -0.36658E-01   920   0.436E+00    0.171E+00
DAV:   6    -0.150684017664E+03    0.44474E-02   -0.86080E-02  1024   0.212E+00    0.130E+00
DAV:   7    -0.150673898518E+03    0.10119E-01   -0.54590E-02  1088   0.153E+00    0.279E-01
DAV:   8    -0.150673943431E+03   -0.44913E-04   -0.66936E-03   912   0.515E-01    0.202E-01
DAV:   9    -0.150673848919E+03    0.94511E-04   -0.24843E-03  1040   0.374E-01    0.191E-01
DAV:  10    -0.150673851443E+03   -0.25234E-05   -0.35799E-03  1048   0.461E-01    0.191E-01
DAV:  11    -0.150673947475E+03   -0.96032E-04   -0.32041E-03  1080   0.395E-01    0.196E-01
DAV:  12    -0.150673652845E+03    0.29463E-03   -0.21505E-03   968   0.284E-01    0.826E-02
DAV:  13    -0.150673655155E+03   -0.23104E-05   -0.25052E-04   984   0.128E-01    0.780E-02
DAV:  14    -0.150673650488E+03    0.46672E-05   -0.11229E-04   824   0.861E-02    0.596E-02
DAV:  15    -0.150673634884E+03    0.15604E-04   -0.12262E-04   808   0.779E-02    0.373E-02
DAV:  16    -0.150673627212E+03    0.76720E-05   -0.27254E-05   368   0.508E-02
   4 F= -.15067363E+03 E0= -.15058085E+03  d E =-.103491E+02
       N       E                     dE             d eps       ncg     rms          rms(c)
DAV:   1    -0.150675805902E+03   -0.21710E-02   -0.40528E-02   568   0.150E+00    0.507E-01
DAV:   2    -0.150734817856E+03   -0.59012E-01   -0.34083E-01  1088   0.420E+00    0.332E+00
DAV:   3    -0.150673137688E+03    0.61680E-01   -0.30758E-01  1088   0.396E+00    0.281E-01
DAV:   4    -0.150675401994E+03   -0.22643E-02   -0.22789E-02   912   0.929E-01    0.398E-01
DAV:   5    -0.150674236100E+03    0.11659E-02   -0.53784E-03   912   0.545E-01    0.134E-01
DAV:   6    -0.150674248878E+03   -0.12777E-04   -0.14500E-03   904   0.264E-01    0.110E-01
DAV:   7    -0.150674174945E+03    0.73933E-04   -0.52971E-04   992   0.165E-01    0.563E-02
DAV:   8    -0.150674162254E+03    0.12691E-04   -0.16097E-04  1008   0.863E-02    0.378E-02
DAV:   9    -0.150674161930E+03    0.32387E-06   -0.60493E-05   712   0.701E-02
   5 F= -.15067416E+03 E0= -.15058153E+03  d E =-.103496E+02
       N       E                     dE             d eps       ncg     rms          rms(c)
DAV:   1    -0.151589255318E+03   -0.91509E+00   -0.41841E+01   544   0.249E+01    0.413E+00
DAV:   2    -0.153339829333E+03   -0.17506E+01   -0.13942E+01  1064   0.247E+01    0.159E+01
DAV:   3    -0.151423259797E+03    0.19166E+01   -0.12114E+01  1032   0.244E+01    0.248E+00
DAV:   4    -0.151669601589E+03   -0.24634E+00   -0.25141E+00   896   0.979E+00    0.549E+00
DAV:   5    -0.151429720767E+03    0.23988E+00   -0.15596E+00  1056   0.873E+00    0.197E+00
DAV:   6    -0.151407453198E+03    0.22268E-01   -0.47121E-01  1064   0.485E+00    0.141E+00
DAV:   7    -0.151413434302E+03   -0.59811E-02   -0.20199E-01  1080   0.326E+00    0.160E+00
DAV:   8    -0.151393079341E+03    0.20355E-01   -0.12582E-01  1056   0.231E+00    0.392E-01
DAV:   9    -0.151393755027E+03   -0.67569E-03   -0.23196E-02   920   0.976E-01    0.417E-01
DAV:  10    -0.151392472257E+03    0.12828E-02   -0.10226E-02  1048   0.724E-01    0.189E-01
DAV:  11    -0.151392427133E+03    0.45124E-04   -0.36358E-03  1080   0.403E-01    0.161E-01
DAV:  12    -0.151392396574E+03    0.30559E-04   -0.18486E-03  1080   0.325E-01    0.129E-01
DAV:  13    -0.151392255895E+03    0.14068E-03   -0.93469E-04  1024   0.211E-01    0.275E-02
DAV:  14    -0.151392283631E+03   -0.27736E-04   -0.25063E-04  1016   0.121E-01    0.590E-02
DAV:  15    -0.151392255807E+03    0.27824E-04   -0.12544E-04   712   0.102E-01    0.248E-02
DAV:  16    -0.151392250213E+03    0.55942E-05   -0.48381E-05   592   0.523E-02
   6 F= -.15139225E+03 E0= -.15130623E+03  d E =-.718088E+00
       N       E                     dE             d eps       ncg     rms          rms(c)
DAV:   1    -0.153068486173E+03   -0.16762E+01   -0.18165E+02   544   0.512E+01    0.855E+00
DAV:   2    -0.159851335448E+03   -0.67828E+01   -0.57273E+01  1056   0.506E+01    0.282E+01
DAV:   3    -0.152294466913E+03    0.75569E+01   -0.47563E+01   948   0.475E+01    0.455E+00
DAV:   4    -0.153117649072E+03   -0.82318E+00   -0.10214E+01   960   0.187E+01    0.110E+01
DAV:   5    -0.152368499653E+03    0.74915E+00   -0.74387E+00  1048   0.188E+01    0.462E+00
DAV:   6    -0.152215275513E+03    0.15322E+00   -0.16194E+00   888   0.875E+00    0.190E+00
DAV:   7    -0.152236890476E+03   -0.21615E-01   -0.51100E-01  1040   0.549E+00    0.240E+00
DAV:   8    -0.152187280552E+03    0.49610E-01   -0.35004E-01  1064   0.440E+00    0.856E-01
DAV:   9    -0.152200486239E+03   -0.13206E-01   -0.16338E-01  1056   0.268E+00    0.145E+00
DAV:  10    -0.152183235416E+03    0.17251E-01   -0.10006E-01  1080   0.230E+00    0.341E-01
DAV:  11    -0.152183943162E+03   -0.70775E-03   -0.16998E-02  1072   0.926E-01    0.402E-01
DAV:  12    -0.152183235490E+03    0.70767E-03   -0.88447E-03  1064   0.647E-01    0.252E-01
DAV:  13    -0.152182819231E+03    0.41626E-03   -0.31815E-03  1088   0.412E-01    0.873E-02
DAV:  14    -0.152182842009E+03   -0.22778E-04   -0.93044E-04   944   0.219E-01    0.871E-02
DAV:  15    -0.152182773442E+03    0.68567E-04   -0.55378E-04   864   0.153E-01    0.292E-02
DAV:  16    -0.152182780396E+03   -0.69542E-05   -0.15070E-04   832   0.954E-02    0.358E-02
DAV:  17    -0.152182762925E+03    0.17472E-04   -0.39564E-05   456   0.647E-02    0.168E-02
DAV:  18    -0.152182762563E+03    0.36120E-06   -0.21118E-05   352   0.340E-02
   7 F= -.15218276E+03 E0= -.15209118E+03  d E =-.150860E+01
       N       E                     dE             d eps       ncg     rms          rms(c)
DAV:   1    -0.152912362486E+03   -0.72960E+00   -0.25703E+01   544   0.194E+01    0.290E+00
DAV:   2    -0.153000855931E+03   -0.88493E-01   -0.25566E+00   960   0.911E+00    0.453E+00
DAV:   3    -0.152890062298E+03    0.11079E+00   -0.23031E+00   980   0.992E+00    0.295E+00
DAV:   4    -0.152925030715E+03   -0.34968E-01   -0.11658E+00  1024   0.695E+00    0.379E+00
DAV:   5    -0.152804340631E+03    0.12069E+00   -0.72803E-01  1088   0.644E+00    0.119E+00
DAV:   6    -0.152800254990E+03    0.40856E-02   -0.21926E-01   912   0.305E+00    0.867E-01
DAV:   7    -0.152798922931E+03    0.13321E-02   -0.81635E-02  1088   0.220E+00    0.853E-01
DAV:   8    -0.152793202186E+03    0.57207E-02   -0.40726E-02  1088   0.152E+00    0.219E-01
DAV:   9    -0.152793896621E+03   -0.69444E-03   -0.97587E-03  1024   0.681E-01    0.353E-01
DAV:  10    -0.152793107546E+03    0.78908E-03   -0.52241E-03  1064   0.543E-01    0.124E-01
DAV:  11    -0.152793015532E+03    0.92014E-04   -0.14183E-03   896   0.255E-01    0.668E-02
DAV:  12    -0.152793078800E+03   -0.63269E-04   -0.83545E-04  1008   0.191E-01    0.103E-01
DAV:  13    -0.152792994105E+03    0.84695E-04   -0.52479E-04   880   0.146E-01    0.180E-02
DAV:  14    -0.152793002665E+03   -0.85599E-05   -0.75386E-05   728   0.617E-02
   8 F= -.15279300E+03 E0= -.15270645E+03  d E =-.610240E+00
       N       E                     dE             d eps       ncg     rms          rms(c)
DAV:   1    -0.155916390387E+03   -0.31234E+01   -0.22302E+02   544   0.567E+01    0.946E+00
DAV:   2    -0.158553319459E+03   -0.26369E+01   -0.49652E+01   920   0.408E+01    0.188E+01
DAV:   3    -0.155068822746E+03    0.34845E+01   -0.30058E+01  1032   0.350E+01    0.646E+00
DAV:   4    -0.156288972451E+03   -0.12201E+01   -0.13809E+01  1088   0.275E+01    0.151E+01
DAV:   5    -0.154679522315E+03    0.16095E+01   -0.11241E+01  1072   0.227E+01    0.350E+00
DAV:   6    -0.154665796010E+03    0.13726E-01   -0.15876E+00   888   0.774E+00    0.236E+00
DAV:   7    -0.154650930032E+03    0.14866E-01   -0.55987E-01   896   0.462E+00    0.221E+00
DAV:   8    -0.154613839966E+03    0.37090E-01   -0.28184E-01   888   0.320E+00    0.720E-01
DAV:   9    -0.154617119555E+03   -0.32796E-02   -0.97100E-02   928   0.205E+00    0.870E-01
DAV:  10    -0.154610639021E+03    0.64805E-02   -0.49487E-02   944   0.147E+00    0.356E-01
DAV:  11    -0.154610196478E+03    0.44254E-03   -0.14147E-02  1080   0.836E-01    0.289E-01
DAV:  12    -0.154609746842E+03    0.44964E-03   -0.47102E-03  1064   0.477E-01    0.119E-01
DAV:  13    -0.154609707994E+03    0.38848E-04   -0.17427E-03  1088   0.273E-01    0.934E-02
DAV:  14    -0.154609678011E+03    0.29984E-04   -0.55806E-04  1080   0.174E-01    0.551E-02
DAV:  15    -0.154609658286E+03    0.19724E-04   -0.29391E-04   904   0.113E-01    0.310E-02
DAV:  16    -0.154609655105E+03    0.31809E-05   -0.52376E-05   528   0.678E-02
   9 F= -.15460966E+03 E0= -.15452594E+03  d E =-.242689E+01
       N       E                     dE             d eps       ncg     rms          rms(c)
DAV:   1    -0.162663588189E+03   -0.80539E+01   -0.86740E+02   544   0.115E+02    0.230E+01
DAV:   2    -0.193866283910E+03   -0.31203E+02   -0.48195E+02  1032   0.134E+02    0.548E+01
DAV:   3    -0.157902039904E+03    0.35964E+02   -0.27976E+02   928   0.951E+01    0.173E+01
DAV:   4    -0.157968551536E+03   -0.66512E-01   -0.59145E+01  1000   0.462E+01    0.168E+01
DAV:   5    -0.156588019599E+03    0.13805E+01   -0.28912E+01  1032   0.327E+01    0.122E+01
DAV:   6    -0.155446210518E+03    0.11418E+01   -0.14889E+01  1064   0.247E+01    0.592E+00
DAV:   7    -0.155619321969E+03   -0.17311E+00   -0.52092E+00  1088   0.169E+01    0.767E+00
DAV:   8    -0.155219084018E+03    0.40024E+00   -0.31549E+00  1088   0.117E+01    0.267E+00
DAV:   9    -0.155220221162E+03   -0.11371E-02   -0.91594E-01  1088   0.654E+00    0.245E+00
DAV:  10    -0.155206140908E+03    0.14080E-01   -0.41767E-01  1080   0.476E+00    0.175E+00
DAV:  11    -0.155181826437E+03    0.24314E-01   -0.20638E-01  1072   0.322E+00    0.695E-01
DAV:  12    -0.155189965268E+03   -0.81388E-02   -0.10915E-01  1040   0.192E+00    0.108E+00
DAV:  13    -0.155179480321E+03    0.10485E-01   -0.62310E-02  1032   0.155E+00    0.232E-01
DAV:  14    -0.155180369026E+03   -0.88870E-03   -0.10715E-02  1056   0.669E-01    0.336E-01
DAV:  15    -0.155179419421E+03    0.94960E-03   -0.50866E-03  1048   0.556E-01    0.105E-01
DAV:  16    -0.155179411317E+03    0.81037E-05   -0.11037E-03   960   0.216E-01    0.856E-02
DAV:  17    -0.155179363308E+03    0.48010E-04   -0.49518E-04   984   0.137E-01    0.450E-02
DAV:  18    -0.155179357331E+03    0.59767E-05   -0.17556E-04  1072   0.923E-02    0.330E-02
DAV:  19    -0.155179351676E+03    0.56546E-05   -0.61739E-05   640   0.603E-02
  10 F= -.15517935E+03 E0= -.15510813E+03  d E =-.299659E+01
       N       E                     dE             d eps       ncg     rms          rms(c)
DAV:   1    -0.159296050212E+03   -0.41167E+01   -0.42197E+02   576   0.963E+01    0.183E+01
DAV:   2    -0.189303517967E+03   -0.30007E+02   -0.27879E+02  1056   0.116E+02    0.689E+01
DAV:   3    -0.154549040890E+03    0.34754E+02   -0.21483E+02  1024   0.976E+01    0.103E+01
DAV:   4    -0.160212780944E+03   -0.56637E+01   -0.63922E+01  1008   0.448E+01    0.232E+01
DAV:   5    -0.155827315728E+03    0.43855E+01   -0.28916E+01  1024   0.351E+01    0.582E+00
DAV:   6    -0.155923885821E+03   -0.96570E-01   -0.40237E+00   920   0.136E+01    0.698E+00
DAV:   7    -0.155578526598E+03    0.34536E+00   -0.20001E+00   984   0.102E+01    0.325E+00
DAV:   8    -0.155635231614E+03   -0.56705E-01   -0.18436E+00   888   0.736E+00    0.402E+00
DAV:   9    -0.155513104531E+03    0.12213E+00   -0.79095E-01   992   0.561E+00    0.172E+00
DAV:  10    -0.155519108773E+03   -0.60042E-02   -0.31458E-01  1024   0.363E+00    0.182E+00
DAV:  11    -0.155510325842E+03    0.87829E-02   -0.16480E-01  1056   0.288E+00    0.133E+00
DAV:  12    -0.155498076859E+03    0.12249E-01   -0.84967E-02  1064   0.186E+00    0.691E-01
DAV:  13    -0.155498575981E+03   -0.49912E-03   -0.24928E-02  1080   0.113E+00    0.670E-01
DAV:  14    -0.155496096094E+03    0.24799E-02   -0.15806E-02  1056   0.817E-01    0.278E-01
DAV:  15    -0.155495781639E+03    0.31445E-03   -0.40482E-03  1072   0.403E-01    0.174E-01
DAV:  16    -0.155495695271E+03    0.86368E-04   -0.11701E-03  1008   0.251E-01    0.110E-01
DAV:  17    -0.155495631998E+03    0.63273E-04   -0.70070E-04  1024   0.176E-01    0.664E-02
DAV:  18    -0.155495653339E+03   -0.21341E-04   -0.44706E-04   880   0.131E-01    0.724E-02
DAV:  19    -0.155495610081E+03    0.43258E-04   -0.26192E-04   936   0.103E-01    0.265E-02
DAV:  20    -0.155495610386E+03   -0.30571E-06   -0.35320E-05   480   0.470E-02
  11 F= -.15549561E+03 E0= -.15541484E+03  d E =-.331285E+01
       N       E                     dE             d eps       ncg     rms          rms(c)
DAV:   1    -0.155876893879E+03   -0.38128E+00   -0.21071E+01   544   0.184E+01    0.366E+00
DAV:   2    -0.156560886043E+03   -0.68399E+00   -0.89287E+00  1000   0.197E+01    0.931E+00
DAV:   3    -0.155722249620E+03    0.83864E+00   -0.66347E+00  1072   0.172E+01    0.231E+00
DAV:   4    -0.155847749210E+03   -0.12550E+00   -0.13417E+00  1072   0.840E+00    0.434E+00
DAV:   5    -0.155704511281E+03    0.14324E+00   -0.10748E+00  1088   0.741E+00    0.135E+00
DAV:   6    -0.155714196486E+03   -0.96852E-02   -0.32327E-01  1080   0.381E+00    0.167E+00
DAV:   7    -0.155701043102E+03    0.13153E-01   -0.15443E-01  1080   0.256E+00    0.947E-01
DAV:   8    -0.155693441054E+03    0.76020E-02   -0.58687E-02  1080   0.161E+00    0.261E-01
DAV:   9    -0.155693983191E+03   -0.54214E-03   -0.10937E-02   968   0.685E-01    0.320E-01
DAV:  10    -0.155693220151E+03    0.76304E-03   -0.60854E-03   976   0.479E-01    0.112E-01
DAV:  11    -0.155693182452E+03    0.37699E-04   -0.15029E-03   960   0.272E-01    0.860E-02
DAV:  12    -0.155693251351E+03   -0.68899E-04   -0.98928E-04  1064   0.226E-01    0.112E-01
DAV:  13    -0.155693134865E+03    0.11649E-03   -0.66675E-04   968   0.168E-01    0.278E-02
DAV:  14    -0.155693145065E+03   -0.10201E-04   -0.15776E-04   880   0.799E-02    0.384E-02
DAV:  15    -0.155693131262E+03    0.13803E-04   -0.54226E-05   584   0.660E-02    0.126E-02
DAV:  16    -0.155693131219E+03    0.43535E-07   -0.16323E-05   336   0.300E-02
  12 F= -.15569313E+03 E0= -.15560920E+03  d E =-.351037E+01
       N       E                     dE             d eps       ncg     rms          rms(c)
DAV:   1    -0.155952710424E+03   -0.25958E+00   -0.53432E+00   552   0.113E+01    0.274E+00
DAV:   2    -0.156681782918E+03   -0.72907E+00   -0.61242E+00  1080   0.194E+01    0.101E+01
DAV:   3    -0.155867554965E+03    0.81423E+00   -0.51450E+00  1088   0.173E+01    0.143E+00
DAV:   4    -0.155938438326E+03   -0.70883E-01   -0.69441E-01  1048   0.566E+00    0.280E+00
DAV:   5    -0.155883954452E+03    0.54484E-01   -0.40910E-01  1072   0.472E+00    0.857E-01
DAV:   6    -0.155884319493E+03   -0.36504E-03   -0.11346E-01   992   0.206E+00    0.879E-01
DAV:   7    -0.155880571063E+03    0.37484E-02   -0.41744E-02  1032   0.133E+00    0.464E-01
DAV:   8    -0.155878826863E+03    0.17442E-02   -0.21908E-02   976   0.928E-01    0.239E-01
DAV:   9    -0.155879072629E+03   -0.24577E-03   -0.59389E-03  1056   0.548E-01    0.275E-01
DAV:  10    -0.155878460278E+03    0.61235E-03   -0.36811E-03  1088   0.435E-01    0.846E-02
DAV:  11    -0.155878454424E+03    0.58535E-05   -0.10107E-03   976   0.214E-01    0.709E-02
DAV:  12    -0.155878435640E+03    0.18785E-04   -0.43836E-04  1064   0.136E-01    0.562E-02
DAV:  13    -0.155878412814E+03    0.22826E-04   -0.18224E-04  1032   0.932E-02    0.210E-02
DAV:  14    -0.155878413390E+03   -0.57633E-06   -0.33022E-05   480   0.552E-02
  13 F= -.15587841E+03 E0= -.15579384E+03  d E =-.185282E+00
       N       E                     dE             d eps       ncg     rms          rms(c)
DAV:   1    -0.157001877517E+03   -0.11235E+01   -0.48377E+01   552   0.337E+01    0.873E+00
DAV:   2    -0.163990366642E+03   -0.69885E+01   -0.62515E+01  1072   0.622E+01    0.286E+01
DAV:   3    -0.156031793534E+03    0.79586E+01   -0.48848E+01  1072   0.494E+01    0.301E+00
DAV:   4    -0.156704375034E+03   -0.67258E+00   -0.56853E+00   920   0.142E+01    0.707E+00
DAV:   5    -0.156313346235E+03    0.39103E+00   -0.25277E+00  1048   0.109E+01    0.212E+00
DAV:   6    -0.156346327826E+03   -0.32982E-01   -0.82440E-01   952   0.584E+00    0.260E+00
DAV:   7    -0.156284186253E+03    0.62142E-01   -0.44912E-01  1000   0.429E+00    0.960E-01
DAV:   8    -0.156286410431E+03   -0.22242E-02   -0.11906E-01  1056   0.213E+00    0.113E+00
DAV:   9    -0.156279134260E+03    0.72762E-02   -0.50611E-02  1088   0.178E+00    0.484E-01
DAV:  10    -0.156278240985E+03    0.89327E-03   -0.23981E-02  1032   0.109E+00    0.305E-01
DAV:  11    -0.156279264431E+03   -0.10234E-02   -0.13866E-02  1088   0.866E-01    0.477E-01
DAV:  12    -0.156277596272E+03    0.16682E-02   -0.91081E-03  1088   0.751E-01    0.113E-01
DAV:  13    -0.156277634338E+03   -0.38066E-04   -0.18891E-03   976   0.277E-01    0.114E-01
DAV:  14    -0.156277599889E+03    0.34449E-04   -0.67667E-04   984   0.177E-01    0.740E-02
DAV:  15    -0.156277562051E+03    0.37838E-04   -0.43179E-04   904   0.120E-01    0.415E-02
DAV:  16    -0.156277568051E+03   -0.60003E-05   -0.18438E-04  1072   0.101E-01    0.507E-02
DAV:  17    -0.156277548714E+03    0.19337E-04   -0.11494E-04   984   0.771E-02    0.103E-02
DAV:  18    -0.156277547874E+03    0.84033E-06   -0.86721E-06   344   0.247E-02
  14 F= -.15627755E+03 E0= -.15619580E+03  d E =-.584417E+00
       N       E                     dE             d eps       ncg     rms          rms(c)
DAV:   1    -0.159244179255E+03   -0.29666E+01   -0.19807E+02   552   0.680E+01    0.191E+01
DAV:   2    -0.187173558906E+03   -0.27929E+02   -0.27869E+02  1056   0.135E+02    0.504E+01
DAV:   3    -0.155144341198E+03    0.32029E+02   -0.16983E+02  1032   0.788E+01    0.837E+00
DAV:   4    -0.158229347569E+03   -0.30850E+01   -0.34795E+01   984   0.330E+01    0.170E+01
DAV:   5    -0.156095995387E+03    0.21334E+01   -0.13794E+01  1016   0.235E+01    0.536E+00
DAV:   6    -0.156345629797E+03   -0.24963E+00   -0.47663E+00  1072   0.157E+01    0.791E+00
DAV:   7    -0.156010792995E+03    0.33484E+00   -0.34136E+00  1088   0.122E+01    0.393E+00
DAV:   8    -0.155953823811E+03    0.56969E-01   -0.58034E-01   960   0.457E+00    0.257E+00
DAV:   9    -0.155915122360E+03    0.38701E-01   -0.29599E-01  1088   0.324E+00    0.122E+00
DAV:  10    -0.155916470524E+03   -0.13482E-02   -0.14592E-01   976   0.218E+00    0.101E+00
DAV:  11    -0.155912411428E+03    0.40591E-02   -0.79486E-02  1064   0.199E+00    0.690E-01
DAV:  12    -0.155910831813E+03    0.15796E-02   -0.16146E-02  1064   0.893E-01    0.494E-01
DAV:  13    -0.155910545493E+03    0.28632E-03   -0.10211E-02  1072   0.734E-01    0.355E-01
DAV:  14    -0.155909765381E+03    0.78011E-03   -0.58655E-03  1048   0.542E-01    0.154E-01
DAV:  15    -0.155909807761E+03   -0.42379E-04   -0.19439E-03   992   0.286E-01    0.130E-01
DAV:  16    -0.155909687762E+03    0.12000E-03   -0.11082E-03  1080   0.225E-01    0.779E-02
DAV:  17    -0.155909664840E+03    0.22922E-04   -0.28037E-04  1016   0.115E-01    0.507E-02
DAV:  18    -0.155909650045E+03    0.14795E-04   -0.98358E-05   912   0.681E-02    0.191E-02
DAV:  19    -0.155909647317E+03    0.27282E-05   -0.15755E-05   344   0.397E-02
  15 F= -.15590965E+03 E0= -.15585142E+03  d E =-.216516E+00
       N       E                     dE             d eps       ncg     rms          rms(c)
DAV:   1    -0.158665055065E+03   -0.27554E+01   -0.14442E+02   576   0.655E+01    0.153E+01
DAV:   2    -0.188071726166E+03   -0.29407E+02   -0.23711E+02  1016   0.114E+02    0.638E+01
DAV:   3    -0.155184963450E+03    0.32887E+02   -0.15891E+02  1032   0.776E+01    0.699E+00
DAV:   4    -0.158603056368E+03   -0.34181E+01   -0.30463E+01  1024   0.322E+01    0.163E+01
DAV:   5    -0.156535573611E+03    0.20675E+01   -0.13650E+01  1000   0.250E+01    0.420E+00
DAV:   6    -0.156495875009E+03    0.39699E-01   -0.21839E+00   928   0.973E+00    0.396E+00
DAV:   7    -0.156386817442E+03    0.10906E+00   -0.52129E-01   976   0.571E+00    0.227E+00
DAV:   8    -0.156371383381E+03    0.15434E-01   -0.34495E-01   936   0.377E+00    0.168E+00
DAV:   9    -0.156368219828E+03    0.31636E-02   -0.40834E-01  1064   0.433E+00    0.192E+00
DAV:  10    -0.156342892362E+03    0.25327E-01   -0.16808E-01  1080   0.307E+00    0.780E-01
DAV:  11    -0.156344898361E+03   -0.20060E-02   -0.59779E-02   960   0.162E+00    0.808E-01
DAV:  12    -0.156340714432E+03    0.41839E-02   -0.39288E-02  1032   0.132E+00    0.465E-01
DAV:  13    -0.156340860415E+03   -0.14598E-03   -0.12268E-02  1056   0.801E-01    0.427E-01
DAV:  14    -0.156339583618E+03    0.12768E-02   -0.83357E-03  1072   0.693E-01    0.173E-01
DAV:  15    -0.156339427144E+03    0.15647E-03   -0.26397E-03   920   0.329E-01    0.126E-01
DAV:  16    -0.156339357637E+03    0.69507E-04   -0.10834E-03  1088   0.225E-01    0.976E-02
DAV:  17    -0.156339294031E+03    0.63606E-04   -0.52599E-04  1088   0.167E-01    0.295E-02
DAV:  18    -0.156339305364E+03   -0.11332E-04   -0.14761E-04   872   0.825E-02    0.405E-02
DAV:  19    -0.156339293443E+03    0.11921E-04   -0.81299E-05   704   0.642E-02    0.185E-02
DAV:  20    -0.156339293446E+03   -0.32733E-08   -0.15819E-05   320   0.356E-02
  16 F= -.15633929E+03 E0= -.15626074E+03  d E =-.646162E+00
       N       E                     dE             d eps       ncg     rms          rms(c)
DAV:   1    -0.156885949932E+03   -0.54666E+00   -0.39155E+00   544   0.145E+01    0.420E+00
DAV:   2    -0.159384573946E+03   -0.24986E+01   -0.18269E+01  1088   0.351E+01    0.185E+01
DAV:   3    -0.156660605435E+03    0.27240E+01   -0.15556E+01  1072   0.308E+01    0.167E+00
DAV:   4    -0.156843873243E+03   -0.18327E+00   -0.18146E+00   912   0.743E+00    0.317E+00
DAV:   5    -0.156778236901E+03    0.65636E-01   -0.36301E-01   944   0.429E+00    0.155E+00
DAV:   6    -0.156769865707E+03    0.83712E-02   -0.10418E-01   920   0.191E+00    0.111E+00
DAV:   7    -0.156764148902E+03    0.57168E-02   -0.59113E-02  1088   0.153E+00    0.537E-01
DAV:   8    -0.156762489989E+03    0.16589E-02   -0.17801E-02  1088   0.895E-01    0.217E-01
DAV:   9    -0.156762577191E+03   -0.87202E-04   -0.50392E-03  1008   0.509E-01    0.208E-01
DAV:  10    -0.156762184968E+03    0.39222E-03   -0.33107E-03   952   0.378E-01    0.674E-02
DAV:  11    -0.156762376587E+03   -0.19162E-03   -0.18614E-03  1088   0.302E-01    0.154E-01
DAV:  12    -0.156762198475E+03    0.17811E-03   -0.11061E-03  1088   0.266E-01    0.634E-02
DAV:  13    -0.156762180311E+03    0.18164E-04   -0.20113E-04   928   0.107E-01    0.412E-02
DAV:  14    -0.156762185858E+03   -0.55478E-05   -0.84083E-05   792   0.650E-02
  17 F= -.15676219E+03 E0= -.15668441E+03  d E =-.422892E+00
       N       E                     dE             d eps       ncg     rms          rms(c)
DAV:   1    -0.158768665479E+03   -0.20065E+01   -0.34571E+01   544   0.436E+01    0.139E+01
DAV:   2    -0.179122312494E+03   -0.20354E+02   -0.16874E+02  1088   0.113E+02    0.455E+01
DAV:   3    -0.157235495580E+03    0.21887E+02   -0.11569E+02  1016   0.676E+01    0.900E+00
DAV:   4    -0.158217217529E+03   -0.98172E+00   -0.16857E+01   960   0.255E+01    0.819E+00
DAV:   5    -0.157729771203E+03    0.48745E+00   -0.39926E+00   968   0.140E+01    0.437E+00
DAV:   6    -0.157679400926E+03    0.50370E-01   -0.14574E+00  1000   0.784E+00    0.301E+00
DAV:   7    -0.157633568459E+03    0.45832E-01   -0.76524E-01  1088   0.529E+00    0.212E+00
DAV:   8    -0.157635025901E+03   -0.14574E-02   -0.10991E-01   888   0.232E+00    0.207E+00
DAV:   9    -0.157624020372E+03    0.11006E-01   -0.50403E-02  1064   0.192E+00    0.163E+00
DAV:  10    -0.157618954125E+03    0.50662E-02   -0.50222E-02  1088   0.170E+00    0.129E+00
DAV:  11    -0.157611104609E+03    0.78495E-02   -0.43593E-02  1088   0.157E+00    0.660E-01
DAV:  12    -0.157609307688E+03    0.17969E-02   -0.11904E-02   992   0.824E-01    0.379E-01
DAV:  13    -0.157609355316E+03   -0.47628E-04   -0.20305E-03   968   0.290E-01    0.307E-01
DAV:  14    -0.157609224202E+03    0.13111E-03   -0.82445E-04  1056   0.225E-01    0.253E-01
DAV:  15    -0.157609110865E+03    0.11334E-03   -0.10447E-03   976   0.213E-01    0.175E-01
DAV:  16    -0.157608953381E+03    0.15748E-03   -0.98595E-04  1024   0.199E-01    0.798E-02
DAV:  17    -0.157608938646E+03    0.14735E-04   -0.22928E-04  1048   0.107E-01    0.493E-02
DAV:  18    -0.157608923214E+03    0.15433E-04   -0.81787E-05   712   0.653E-02    0.250E-02
DAV:  19    -0.157608921591E+03    0.16224E-05   -0.14091E-05   368   0.295E-02
  18 F= -.15760892E+03 E0= -.15753149E+03  d E =-.126963E+01
       N       E                     dE             d eps       ncg     rms          rms(c)
DAV:   1    -0.162226512767E+03   -0.46176E+01   -0.13835E+02   544   0.895E+01    0.299E+01
DAV:   2    -0.220772422680E+03   -0.58546E+02   -0.52220E+02  1040   0.224E+02    0.803E+01
DAV:   3    -0.164486397138E+03    0.56286E+02   -0.28406E+02  1000   0.874E+01    0.283E+01
DAV:   4    -0.160102307424E+03    0.43841E+01   -0.71783E+01  1056   0.697E+01    0.162E+01
DAV:   5    -0.157366154340E+03    0.27362E+01   -0.23801E+01   928   0.352E+01    0.590E+00
DAV:   6    -0.157742056720E+03   -0.37590E+00   -0.61199E+00   904   0.177E+01    0.794E+00
DAV:   7    -0.157359056959E+03    0.38300E+00   -0.36533E+00  1008   0.138E+01    0.490E+00
DAV:   8    -0.157347086314E+03    0.11971E-01   -0.69689E-01  1024   0.702E+00    0.392E+00
DAV:   9    -0.157286973700E+03    0.60113E-01   -0.31352E-01  1048   0.471E+00    0.254E+00
DAV:  10    -0.157286311269E+03    0.66243E-03   -0.15021E-01  1032   0.286E+00    0.191E+00
DAV:  11    -0.157273914815E+03    0.12396E-01   -0.10357E-01  1024   0.244E+00    0.120E+00
DAV:  12    -0.157273021495E+03    0.89332E-03   -0.13355E-02   888   0.991E-01    0.103E+00
DAV:  13    -0.157271962285E+03    0.10592E-02   -0.64625E-03  1056   0.651E-01    0.644E-01
DAV:  14    -0.157271118753E+03    0.84353E-03   -0.45588E-03  1072   0.552E-01    0.444E-01
DAV:  15    -0.157270655491E+03    0.46326E-03   -0.36561E-03  1040   0.456E-01    0.278E-01
DAV:  16    -0.157270370786E+03    0.28470E-03   -0.16180E-03   920   0.281E-01    0.167E-01
DAV:  17    -0.157270349485E+03    0.21301E-04   -0.31236E-04   936   0.118E-01    0.112E-01
DAV:  18    -0.157270318140E+03    0.31345E-04   -0.16615E-04  1000   0.105E-01    0.551E-02
DAV:  19    -0.157270319401E+03   -0.12610E-05   -0.99159E-05   800   0.707E-02
  19 F= -.15727032E+03 E0= -.15719929E+03  d E =-.931026E+00
       N       E                     dE             d eps       ncg     rms          rms(c)
DAV:   1    -0.159303243700E+03   -0.20329E+01   -0.57242E+01   544   0.599E+01    0.143E+01
DAV:   2    -0.182664222356E+03   -0.23361E+02   -0.18341E+02  1000   0.117E+02    0.525E+01
DAV:   3    -0.157203405149E+03    0.25461E+02   -0.79186E+01  1048   0.585E+01    0.757E+00
DAV:   4    -0.158454833126E+03   -0.12514E+01   -0.14003E+01   984   0.255E+01    0.847E+00
DAV:   5    -0.157943735938E+03    0.51110E+00   -0.57283E+00  1064   0.205E+01    0.357E+00
DAV:   6    -0.157932081274E+03    0.11655E-01   -0.20275E+00   896   0.901E+00    0.314E+00
DAV:   7    -0.157825496704E+03    0.10658E+00   -0.76106E-01   944   0.598E+00    0.148E+00
DAV:   8    -0.157822267120E+03    0.32296E-02   -0.23028E-01  1016   0.370E+00    0.149E+00
DAV:   9    -0.157811406005E+03    0.10861E-01   -0.12036E-01  1088   0.283E+00    0.103E+00
DAV:  10    -0.157804803024E+03    0.66030E-02   -0.57844E-02   928   0.177E+00    0.513E-01
DAV:  11    -0.157805096447E+03   -0.29342E-03   -0.14373E-02   960   0.858E-01    0.439E-01
DAV:  12    -0.157804342071E+03    0.75438E-03   -0.86091E-03  1056   0.769E-01    0.273E-01
DAV:  13    -0.157804286998E+03    0.55073E-04   -0.43308E-03  1032   0.553E-01    0.231E-01
DAV:  14    -0.157804076531E+03    0.21047E-03   -0.24154E-03   992   0.386E-01    0.109E-01
DAV:  15    -0.157804044558E+03    0.31973E-04   -0.11528E-03   928   0.218E-01    0.747E-02
DAV:  16    -0.157804014456E+03    0.30102E-04   -0.46607E-04  1008   0.165E-01    0.501E-02
DAV:  17    -0.157803990699E+03    0.23757E-04   -0.20326E-04   912   0.101E-01    0.181E-02
DAV:  18    -0.157803992349E+03   -0.16497E-05   -0.33546E-05   456   0.522E-02
  20 F= -.15780399E+03 E0= -.15772689E+03  d E =-.146470E+01
       N       E                     dE             d eps       ncg     rms          rms(c)
DAV:   1    -0.158136319319E+03   -0.33233E+00   -0.63294E+00   544   0.919E+00    0.120E+00
DAV:   2    -0.158450975206E+03   -0.31466E+00   -0.21532E+00  1072   0.122E+01    0.566E+00
DAV:   3    -0.158131183264E+03    0.31979E+00   -0.14330E+00  1072   0.990E+00    0.671E-01
DAV:   4    -0.158139153336E+03   -0.79701E-02   -0.11606E-01   896   0.206E+00    0.626E-01
DAV:   5    -0.158137833188E+03    0.13201E-02   -0.24592E-02  1088   0.118E+00    0.477E-01
DAV:   6    -0.158136926250E+03    0.90694E-03   -0.20920E-02  1072   0.110E+00    0.351E-01
DAV:   7    -0.158137377934E+03   -0.45168E-03   -0.17187E-02  1080   0.919E-01    0.394E-01
DAV:   8    -0.158136167227E+03    0.12107E-02   -0.97820E-03  1040   0.667E-01    0.204E-01
DAV:   9    -0.158136053719E+03    0.11351E-03   -0.19976E-03  1048   0.362E-01    0.138E-01
DAV:  10    -0.158135899921E+03    0.15380E-03   -0.10255E-03  1088   0.251E-01    0.344E-02
DAV:  11    -0.158135908666E+03   -0.87450E-05   -0.27868E-04   888   0.108E-01    0.361E-02
DAV:  12    -0.158135902737E+03    0.59291E-05   -0.11581E-04   848   0.871E-02    0.277E-02
DAV:  13    -0.158135893343E+03    0.93938E-05   -0.27825E-05   408   0.598E-02
  21 F= -.15813589E+03 E0= -.15805903E+03  d E =-.331901E+00
       N       E                     dE             d eps       ncg     rms          rms(c)
DAV:   1    -0.159021166017E+03   -0.88526E+00   -0.56931E+01   544   0.274E+01    0.381E+00
DAV:   2    -0.161991235464E+03   -0.29701E+01   -0.21761E+01  1080   0.393E+01    0.173E+01
DAV:   3    -0.158931948308E+03    0.30593E+01   -0.14459E+01  1088   0.318E+01    0.228E+00
DAV:   4    -0.159035993348E+03   -0.10405E+00   -0.14588E+00   912   0.710E+00    0.227E+00
DAV:   5    -0.159017689964E+03    0.18303E-01   -0.26439E-01  1048   0.405E+00    0.134E+00
DAV:   6    -0.159008530931E+03    0.91590E-02   -0.17639E-01  1032   0.306E+00    0.100E+00
DAV:   7    -0.159017525349E+03   -0.89944E-02   -0.17931E-01  1016   0.284E+00    0.131E+00
DAV:   8    -0.159004194436E+03    0.13331E-01   -0.11550E-01  1072   0.233E+00    0.724E-01
DAV:   9    -0.159002242366E+03    0.19521E-02   -0.21937E-02  1080   0.125E+00    0.501E-01
DAV:  10    -0.159000527121E+03    0.17152E-02   -0.10115E-02  1088   0.792E-01    0.119E-01
DAV:  11    -0.159000555631E+03   -0.28511E-04   -0.23797E-03   888   0.326E-01    0.756E-02
DAV:  12    -0.159000501254E+03    0.54377E-04   -0.48726E-04   864   0.169E-01    0.332E-02
DAV:  13    -0.159000503636E+03   -0.23820E-05   -0.16002E-04   896   0.989E-02    0.308E-02
DAV:  14    -0.159000497746E+03    0.58898E-05   -0.55355E-05   568   0.792E-02
  22 F= -.15900050E+03 E0= -.15893171E+03  d E =-.119651E+01
       N       E                     dE             d eps       ncg     rms          rms(c)
DAV:   1    -0.159972568773E+03   -0.97207E+00   -0.23118E+02   544   0.566E+01    0.846E+00
DAV:   2    -0.173252117568E+03   -0.13280E+02   -0.10163E+02  1072   0.852E+01    0.358E+01
DAV:   3    -0.159678763248E+03    0.13573E+02   -0.61997E+01  1064   0.644E+01    0.751E+00
DAV:   4    -0.159963669545E+03   -0.28491E+00   -0.69668E+00   968   0.163E+01    0.391E+00
DAV:   5    -0.159967971002E+03   -0.43015E-02   -0.10998E+00   888   0.768E+00    0.295E+00
DAV:   6    -0.159918278509E+03    0.49692E-01   -0.63938E-01   880   0.558E+00    0.195E+00
DAV:   7    -0.159967758961E+03   -0.49480E-01   -0.61068E-01   904   0.546E+00    0.275E+00
DAV:   8    -0.159906629551E+03    0.61129E-01   -0.51759E-01  1064   0.511E+00    0.154E+00
DAV:   9    -0.159897700529E+03    0.89290E-02   -0.11202E-01  1064   0.270E+00    0.973E-01
DAV:  10    -0.159891740626E+03    0.59599E-02   -0.34696E-02  1072   0.151E+00    0.341E-01
DAV:  11    -0.159891593748E+03    0.14688E-03   -0.10873E-02   920   0.758E-01    0.236E-01
DAV:  12    -0.159891183582E+03    0.41017E-03   -0.38477E-03   984   0.455E-01    0.900E-02
DAV:  13    -0.159891181392E+03    0.21903E-05   -0.11128E-03   880   0.229E-01    0.744E-02
DAV:  14    -0.159891147525E+03    0.33867E-04   -0.33278E-04   944   0.149E-01    0.465E-02
DAV:  15    -0.159891141931E+03    0.55943E-05   -0.15685E-04   864   0.115E-01    0.386E-02
DAV:  16    -0.159891138696E+03    0.32350E-05   -0.98067E-05   848   0.913E-02
  23 F= -.15989114E+03 E0= -.15982497E+03  d E =-.208715E+01
       N       E                     dE             d eps       ncg     rms          rms(c)
DAV:   1    -0.160671241253E+03   -0.78010E+00   -0.26028E+01   548   0.292E+01    0.743E+00
DAV:   2    -0.170689942707E+03   -0.10019E+02   -0.65563E+01  1064   0.678E+01    0.389E+01
DAV:   3    -0.160190032762E+03    0.10500E+02   -0.36133E+01  1048   0.406E+01    0.455E+00
DAV:   4    -0.160506273647E+03   -0.31624E+00   -0.42626E+00   952   0.129E+01    0.362E+00
DAV:   5    -0.160471361239E+03    0.34912E-01   -0.13141E+00  1088   0.953E+00    0.321E+00
DAV:   6    -0.160423950079E+03    0.47411E-01   -0.59725E-01  1072   0.651E+00    0.165E+00
DAV:   7    -0.160426213763E+03   -0.22637E-02   -0.27185E-01   936   0.373E+00    0.160E+00
DAV:   8    -0.160400594829E+03    0.25619E-01   -0.17578E-01   880   0.267E+00    0.570E-01
DAV:   9    -0.160402414558E+03   -0.18197E-02   -0.39375E-02   896   0.133E+00    0.577E-01
DAV:  10    -0.160399628339E+03    0.27862E-02   -0.17526E-02   912   0.960E-01    0.177E-01
DAV:  11    -0.160399968134E+03   -0.33979E-03   -0.51568E-03   896   0.475E-01    0.212E-01
DAV:  12    -0.160399554286E+03    0.41385E-03   -0.28924E-03   952   0.373E-01    0.874E-02
DAV:  13    -0.160399659845E+03   -0.10556E-03   -0.10922E-03  1008   0.265E-01    0.128E-01
DAV:  14    -0.160399588990E+03    0.70855E-04   -0.73972E-04  1024   0.245E-01    0.686E-02
DAV:  15    -0.160399561712E+03    0.27278E-04   -0.23431E-04  1008   0.125E-01    0.205E-02
DAV:  16    -0.160399562081E+03   -0.36931E-06   -0.50395E-05   584   0.581E-02
  24 F= -.16039956E+03 E0= -.16032988E+03  d E =-.508423E+00
       N       E                     dE             d eps       ncg     rms          rms(c)
DAV:   1    -0.160806999701E+03   -0.40744E+00   -0.21376E+01   576   0.258E+01    0.677E+00
DAV:   2    -0.169910221838E+03   -0.91032E+01   -0.57731E+01  1064   0.612E+01    0.377E+01
DAV:   3    -0.160352916043E+03    0.95573E+01   -0.33082E+01  1048   0.382E+01    0.439E+00
DAV:   4    -0.160640247723E+03   -0.28733E+00   -0.37856E+00   960   0.119E+01    0.328E+00
DAV:   5    -0.160620262414E+03    0.19985E-01   -0.10990E+00  1088   0.864E+00    0.304E+00
DAV:   6    -0.160568490312E+03    0.51772E-01   -0.51850E-01  1088   0.582E+00    0.126E+00
DAV:   7    -0.160575311288E+03   -0.68210E-02   -0.20032E-01   944   0.318E+00    0.138E+00
DAV:   8    -0.160554954303E+03    0.20357E-01   -0.13232E-01   888   0.229E+00    0.469E-01
DAV:   9    -0.160556805563E+03   -0.18513E-02   -0.34809E-02   896   0.119E+00    0.542E-01
DAV:  10    -0.160554284946E+03    0.25206E-02   -0.16054E-02   888   0.860E-01    0.146E-01
DAV:  11    -0.160554562335E+03   -0.27739E-03   -0.41742E-03   928   0.420E-01    0.188E-01
DAV:  12    -0.160554239737E+03    0.32260E-03   -0.22485E-03  1040   0.345E-01    0.742E-02
DAV:  13    -0.160554305786E+03   -0.66049E-04   -0.74566E-04  1048   0.232E-01    0.113E-01
DAV:  14    -0.160554247063E+03    0.58723E-04   -0.48377E-04  1024   0.192E-01    0.415E-02
DAV:  15    -0.160554240152E+03    0.69115E-05   -0.15111E-04   864   0.822E-02    0.177E-02
DAV:  16    -0.160554237823E+03    0.23289E-05   -0.20440E-05   376   0.469E-02
  25 F= -.16055424E+03 E0= -.16048263E+03  d E =-.663099E+00
       N       E                     dE             d eps       ncg     rms          rms(c)
DAV:   1    -0.161045057746E+03   -0.49082E+00   -0.18603E+01   544   0.172E+01    0.297E+00
DAV:   2    -0.161821940903E+03   -0.77688E+00   -0.68677E+00  1072   0.195E+01    0.986E+00
DAV:   3    -0.161001163702E+03    0.82078E+00   -0.46723E+00  1080   0.173E+01    0.265E+00
DAV:   4    -0.161000619363E+03    0.54434E-03   -0.62792E-01   984   0.664E+00    0.172E+00
DAV:   5    -0.160977608577E+03    0.23011E-01   -0.30623E-01  1000   0.452E+00    0.122E+00
DAV:   6    -0.160967515795E+03    0.10093E-01   -0.14789E-01   960   0.268E+00    0.789E-01
DAV:   7    -0.160972783993E+03   -0.52682E-02   -0.94380E-02  1088   0.242E+00    0.114E+00
DAV:   8    -0.160962257690E+03    0.10526E-01   -0.64104E-02  1064   0.184E+00    0.209E-01
DAV:   9    -0.160962690098E+03   -0.43241E-03   -0.79744E-03  1024   0.734E-01    0.250E-01
DAV:  10    -0.160962183751E+03    0.50635E-03   -0.38101E-03  1008   0.474E-01    0.770E-02
DAV:  11    -0.160962166881E+03    0.16870E-04   -0.65691E-04   912   0.166E-01    0.529E-02
DAV:  12    -0.160962148448E+03    0.18433E-04   -0.12697E-04   884   0.857E-02    0.232E-02
DAV:  13    -0.160962158344E+03   -0.98959E-05   -0.12152E-04   880   0.692E-02    0.355E-02
DAV:  14    -0.160962146217E+03    0.12127E-04   -0.63785E-05   680   0.572E-02    0.118E-02
DAV:  15    -0.160962145810E+03    0.40681E-06   -0.99778E-06   320   0.284E-02
  26 F= -.16096215E+03 E0= -.16089596E+03  d E =-.407908E+00
       N       E                     dE             d eps       ncg     rms          rms(c)
DAV:   1    -0.162398719758E+03   -0.14366E+01   -0.16690E+02   544   0.503E+01    0.876E+00
DAV:   2    -0.167650731589E+03   -0.52520E+01   -0.55421E+01  1032   0.570E+01    0.243E+01
DAV:   3    -0.162046156674E+03    0.56046E+01   -0.31538E+01  1064   0.487E+01    0.797E+00
DAV:   4    -0.161938656958E+03    0.10750E+00   -0.49505E+00   936   0.183E+01    0.422E+00
DAV:   5    -0.161902018833E+03    0.36638E-01   -0.25185E+00  1000   0.124E+01    0.450E+00
DAV:   6    -0.161734694778E+03    0.16732E+00   -0.16327E+00  1040   0.943E+00    0.202E+00
DAV:   7    -0.161762534338E+03   -0.27840E-01   -0.57079E-01  1040   0.634E+00    0.228E+00
DAV:   8    -0.161705772248E+03    0.56762E-01   -0.37118E-01  1056   0.470E+00    0.757E-01
DAV:   9    -0.161708356151E+03   -0.25839E-02   -0.65743E-02  1056   0.231E+00    0.925E-01
DAV:  10    -0.161706838107E+03    0.15180E-02   -0.50044E-02  1040   0.200E+00    0.789E-01
DAV:  11    -0.161702821699E+03    0.40164E-02   -0.25562E-02  1056   0.137E+00    0.202E-01
DAV:  12    -0.161702960315E+03   -0.13862E-03   -0.46401E-03   936   0.488E-01    0.166E-01
DAV:  13    -0.161702730616E+03    0.22970E-03   -0.17563E-03   872   0.286E-01    0.648E-02
DAV:  14    -0.161702791748E+03   -0.61132E-04   -0.65599E-04   896   0.168E-01    0.836E-02
DAV:  15    -0.161702728552E+03    0.63196E-04   -0.48359E-04  1016   0.155E-01    0.331E-02
DAV:  16    -0.161702728041E+03    0.51091E-06   -0.10865E-04   816   0.752E-02    0.272E-02
DAV:  17    -0.161702718251E+03    0.97898E-05   -0.30964E-05   448   0.507E-02
  27 F= -.16170272E+03 E0= -.16164508E+03  d E =-.114848E+01
       N       E                     dE             d eps       ncg     rms          rms(c)
DAV:   1    -0.161719973253E+03   -0.17245E-01   -0.21306E+00   552   0.603E+00    0.118E+00
DAV:   2    -0.161881067309E+03   -0.16109E+00   -0.12275E+00  1040   0.866E+00    0.484E+00
DAV:   3    -0.161715698219E+03    0.16537E+00   -0.88164E-01  1080   0.780E+00    0.120E+00
DAV:   4    -0.161712477265E+03    0.32210E-02   -0.10905E-01   936   0.257E+00    0.576E-01
DAV:   5    -0.161715489630E+03   -0.30124E-02   -0.58533E-02  1080   0.203E+00    0.907E-01
DAV:   6    -0.161709523223E+03    0.59664E-02   -0.39808E-02  1088   0.162E+00    0.281E-01
DAV:   7    -0.161709872031E+03   -0.34881E-03   -0.12708E-02   928   0.822E-01    0.282E-01
DAV:   8    -0.161708998908E+03    0.87312E-03   -0.61430E-03   904   0.518E-01    0.732E-02
DAV:   9    -0.161709067975E+03   -0.69067E-04   -0.11892E-03   904   0.231E-01    0.801E-02
DAV:  10    -0.161708996133E+03    0.71842E-04   -0.45681E-04   912   0.159E-01    0.314E-02
DAV:  11    -0.161708996277E+03   -0.14357E-06   -0.10804E-04   856   0.853E-02    0.317E-02
DAV:  12    -0.161708994107E+03    0.21692E-05   -0.47961E-05   640   0.727E-02
  28 F= -.16170899E+03 E0= -.16165032E+03  d E =-.115476E+01
       N       E                     dE             d eps       ncg     rms          rms(c)
DAV:   1    -0.162173235307E+03   -0.46424E+00   -0.16866E+01   560   0.214E+01    0.568E+00
DAV:   2    -0.166664153368E+03   -0.44909E+01   -0.30432E+01  1088   0.463E+01    0.242E+01
DAV:   3    -0.161802428040E+03    0.48617E+01   -0.22812E+01  1072   0.416E+01    0.257E+00
DAV:   4    -0.162151251811E+03   -0.34882E+00   -0.32284E+00  1024   0.114E+01    0.524E+00
DAV:   5    -0.162000112707E+03    0.15114E+00   -0.10132E+00  1008   0.873E+00    0.225E+00
DAV:   6    -0.161983336031E+03    0.16777E-01   -0.28083E-01   904   0.395E+00    0.127E+00
DAV:   7    -0.161972102736E+03    0.11233E-01   -0.11138E-01  1016   0.229E+00    0.535E-01
DAV:   8    -0.161970938671E+03    0.11641E-02   -0.33103E-02   888   0.117E+00    0.434E-01
DAV:   9    -0.161970096763E+03    0.84191E-03   -0.10212E-02  1032   0.780E-01    0.295E-01
DAV:  10    -0.161969809640E+03    0.28712E-03   -0.81024E-03  1088   0.645E-01    0.231E-01
DAV:  11    -0.161970063333E+03   -0.25369E-03   -0.45899E-03  1040   0.607E-01    0.293E-01
DAV:  12    -0.161969545488E+03    0.51784E-03   -0.32289E-03  1048   0.459E-01    0.909E-02
DAV:  13    -0.161969534135E+03    0.11353E-04   -0.37265E-04   896   0.138E-01    0.685E-02
DAV:  14    -0.161969522088E+03    0.12047E-04   -0.48846E-05   592   0.559E-02    0.431E-02
DAV:  15    -0.161969520245E+03    0.18424E-05   -0.71162E-05   688   0.635E-02
  29 F= -.16196952E+03 E0= -.16191151E+03  d E =-.260526E+00
       N       E                     dE             d eps       ncg     rms          rms(c)
DAV:   1    -0.162557216197E+03   -0.58769E+00   -0.33876E+01   576   0.303E+01    0.831E+00
DAV:   2    -0.171572009902E+03   -0.90148E+01   -0.62188E+01  1088   0.666E+01    0.326E+01
DAV:   3    -0.161792794979E+03    0.97792E+01   -0.43414E+01  1048   0.571E+01    0.406E+00
DAV:   4    -0.162465726081E+03   -0.67293E+00   -0.73405E+00  1016   0.158E+01    0.685E+00
DAV:   5    -0.162237172139E+03    0.22855E+00   -0.19890E+00   976   0.111E+01    0.421E+00
DAV:   6    -0.162172226493E+03    0.64946E-01   -0.60383E-01  1024   0.632E+00    0.199E+00
DAV:   7    -0.162147650035E+03    0.24576E-01   -0.30088E-01  1072   0.400E+00    0.100E+00
DAV:   8    -0.162145336877E+03    0.23132E-02   -0.10873E-01   936   0.206E+00    0.101E+00
DAV:   9    -0.162140923341E+03    0.44135E-02   -0.21031E-02   976   0.116E+00    0.597E-01
DAV:  10    -0.162139490982E+03    0.14324E-02   -0.15709E-02  1080   0.867E-01    0.293E-01
DAV:  11    -0.162140917263E+03   -0.14263E-02   -0.12723E-02  1056   0.979E-01    0.556E-01
DAV:  12    -0.162139105375E+03    0.18119E-02   -0.82790E-03  1056   0.820E-01    0.162E-01
DAV:  13    -0.162139160555E+03   -0.55180E-04   -0.11000E-03   912   0.242E-01    0.153E-01
DAV:  14    -0.162139115337E+03    0.45218E-04   -0.21549E-04   896   0.116E-01    0.112E-01
DAV:  15    -0.162139096757E+03    0.18580E-04   -0.39290E-04   944   0.121E-01    0.711E-02
DAV:  16    -0.162139057999E+03    0.38758E-04   -0.28434E-04   904   0.104E-01    0.220E-02
DAV:  17    -0.162139055150E+03    0.28485E-05   -0.41370E-05   520   0.551E-02
  30 F= -.16213906E+03 E0= -.16208482E+03  d E =-.430061E+00
       N       E                     dE             d eps       ncg     rms          rms(c)
DAV:   1    -0.162397810856E+03   -0.25875E+00   -0.13147E+01   544   0.149E+01    0.338E+00
DAV:   2    -0.165198772351E+03   -0.28010E+01   -0.17348E+01  1088   0.307E+01    0.222E+01
DAV:   3    -0.162325254809E+03    0.28735E+01   -0.10774E+01  1088   0.230E+01    0.313E+00
DAV:   4    -0.162338725478E+03   -0.13471E-01   -0.91573E-01   856   0.653E+00    0.977E-01
DAV:   5    -0.162352036874E+03   -0.13311E-01   -0.20014E-01  1048   0.342E+00    0.155E+00
DAV:   6    -0.162335340905E+03    0.16696E-01   -0.16099E-01  1064   0.329E+00    0.758E-01
DAV:   7    -0.162337264740E+03   -0.19238E-02   -0.73176E-02  1072   0.213E+00    0.775E-01
DAV:   8    -0.162331849157E+03    0.54156E-02   -0.37065E-02  1064   0.142E+00    0.207E-01
DAV:   9    -0.162331855696E+03   -0.65390E-05   -0.63177E-03   896   0.554E-01    0.181E-01
DAV:  10    -0.162331648724E+03    0.20697E-03   -0.18016E-03   880   0.326E-01    0.750E-02
DAV:  11    -0.162331629677E+03    0.19047E-04   -0.78769E-04   984   0.204E-01    0.677E-02
DAV:  12    -0.162331648569E+03   -0.18893E-04   -0.41637E-04  1032   0.185E-01    0.848E-02
DAV:  13    -0.162331602384E+03    0.46185E-04   -0.22347E-04  1008   0.126E-01    0.155E-02
DAV:  14    -0.162331603908E+03   -0.15239E-05   -0.24804E-05   408   0.443E-02
  31 F= -.16233160E+03 E0= -.16227800E+03  d E =-.192549E+00
       N       E                     dE             d eps       ncg     rms          rms(c)
DAV:   1    -0.162441377023E+03   -0.10977E+00   -0.10977E+01   544   0.135E+01    0.312E+00
DAV:   2    -0.164961171221E+03   -0.25198E+01   -0.15060E+01  1080   0.282E+01    0.213E+01
DAV:   3    -0.162371360966E+03    0.25898E+01   -0.90430E+00  1088   0.216E+01    0.283E+00
DAV:   4    -0.162392541254E+03   -0.21180E-01   -0.77618E-01   864   0.595E+00    0.847E-01
DAV:   5    -0.162399153508E+03   -0.66123E-02   -0.14512E-01   968   0.275E+00    0.108E+00
DAV:   6    -0.162389376235E+03    0.97773E-02   -0.10488E-01  1056   0.262E+00    0.648E-01
DAV:   7    -0.162392136039E+03   -0.27598E-02   -0.60861E-02  1088   0.198E+00    0.873E-01
DAV:   8    -0.162386565881E+03    0.55702E-02   -0.33063E-02  1088   0.141E+00    0.206E-01
DAV:   9    -0.162386521961E+03    0.43920E-04   -0.53987E-03   904   0.515E-01    0.146E-01
DAV:  10    -0.162386399758E+03    0.12220E-03   -0.12653E-03   872   0.282E-01    0.641E-02
DAV:  11    -0.162386368656E+03    0.31102E-04   -0.54661E-04   880   0.161E-01    0.382E-02
DAV:  12    -0.162386370615E+03   -0.19593E-05   -0.14452E-04   864   0.100E-01    0.426E-02
DAV:  13    -0.162386359632E+03    0.10983E-04   -0.61132E-05   672   0.791E-02    0.173E-02
DAV:  14    -0.162386359977E+03   -0.34539E-06   -0.30289E-05   448   0.422E-02
  32 F= -.16238636E+03 E0= -.16233131E+03  d E =-.247305E+00
       N       E                     dE             d eps       ncg     rms          rms(c)
DAV:   1    -0.162432500104E+03   -0.46140E-01   -0.17749E+00   544   0.456E+00    0.591E-01
DAV:   2    -0.162494212656E+03   -0.61713E-01   -0.46332E-01  1056   0.526E+00    0.283E+00
DAV:   3    -0.162437092184E+03    0.57120E-01   -0.30919E-01  1080   0.457E+00    0.904E-01
DAV:   4    -0.162434205870E+03    0.28863E-02   -0.34279E-02   920   0.144E+00    0.407E-01
DAV:   5    -0.162433963266E+03    0.24260E-03   -0.85092E-03  1040   0.769E-01    0.318E-01
DAV:   6    -0.162433505946E+03    0.45732E-03   -0.49793E-03  1016   0.562E-01    0.191E-01
DAV:   7    -0.162433740579E+03   -0.23463E-03   -0.62423E-03   952   0.550E-01    0.216E-01
DAV:   8    -0.162433234060E+03    0.50652E-03   -0.31209E-03   976   0.424E-01    0.707E-02
DAV:   9    -0.162433214738E+03    0.19322E-04   -0.56131E-04  1016   0.176E-01    0.531E-02
DAV:  10    -0.162433234764E+03   -0.20026E-04   -0.29509E-04  1008   0.149E-01    0.759E-02
DAV:  11    -0.162433194839E+03    0.39925E-04   -0.19780E-04   960   0.116E-01    0.111E-02
DAV:  12    -0.162433195762E+03   -0.92288E-06   -0.21334E-05   416   0.378E-02
  33 F= -.16243320E+03 E0= -.16237810E+03  d E =-.468358E-01
       N       E                     dE             d eps       ncg     rms          rms(c)
DAV:   1    -0.162510235809E+03   -0.77041E-01   -0.15960E+01   544   0.136E+01    0.175E+00
DAV:   2    -0.163030575522E+03   -0.52034E+00   -0.40356E+00  1056   0.154E+01    0.802E+00
DAV:   3    -0.162540614066E+03    0.48996E+00   -0.25618E+00  1088   0.136E+01    0.244E+00
DAV:   4    -0.162524925836E+03    0.15688E-01   -0.28816E-01   928   0.412E+00    0.123E+00
DAV:   5    -0.162521888168E+03    0.30377E-02   -0.76970E-02   984   0.231E+00    0.933E-01
DAV:   6    -0.162518779508E+03    0.31087E-02   -0.49292E-02  1000   0.177E+00    0.626E-01
DAV:   7    -0.162519259586E+03   -0.48008E-03   -0.55879E-02   976   0.167E+00    0.587E-01
DAV:   8    -0.162515881228E+03    0.33784E-02   -0.23549E-02   952   0.118E+00    0.219E-01
DAV:   9    -0.162515499389E+03    0.38184E-03   -0.51486E-03   928   0.519E-01    0.121E-01
DAV:  10    -0.162515730631E+03   -0.23124E-03   -0.23346E-03  1024   0.406E-01    0.228E-01
DAV:  11    -0.162515410742E+03    0.31989E-03   -0.17071E-03  1024   0.354E-01    0.487E-02
DAV:  12    -0.162515424070E+03   -0.13328E-04   -0.36320E-04   912   0.131E-01    0.442E-02
DAV:  13    -0.162515405113E+03    0.18956E-04   -0.11435E-04   792   0.765E-02    0.124E-02
DAV:  14    -0.162515404233E+03    0.88039E-06   -0.11903E-05   352   0.304E-02
  34 F= -.16251540E+03 E0= -.16245930E+03  d E =-.129044E+00
       N       E                     dE             d eps       ncg     rms          rms(c)
DAV:   1    -0.162521311649E+03   -0.59065E-02   -0.26220E+00   544   0.554E+00    0.737E-01
DAV:   2    -0.162619731719E+03   -0.98420E-01   -0.72468E-01  1056   0.660E+00    0.362E+00
DAV:   3    -0.162527675914E+03    0.92056E-01   -0.48097E-01  1088   0.575E+00    0.110E+00
DAV:   4    -0.162523799138E+03    0.38768E-02   -0.52777E-02   928   0.179E+00    0.498E-01
DAV:   5    -0.162523377360E+03    0.42178E-03   -0.12051E-02  1016   0.928E-01    0.381E-01
DAV:   6    -0.162522882397E+03    0.49496E-03   -0.72199E-03  1032   0.691E-01    0.261E-01
DAV:   7    -0.162523119370E+03   -0.23697E-03   -0.96759E-03  1016   0.704E-01    0.267E-01
DAV:   8    -0.162522396058E+03    0.72331E-03   -0.47207E-03   952   0.508E-01    0.870E-02
DAV:   9    -0.162522341441E+03    0.54617E-04   -0.91802E-04   912   0.215E-01    0.527E-02
DAV:  10    -0.162522373773E+03   -0.32332E-04   -0.39078E-04  1024   0.168E-01    0.885E-02
DAV:  11    -0.162522324047E+03    0.49725E-04   -0.26455E-04  1008   0.141E-01    0.186E-02
DAV:  12    -0.162522325882E+03   -0.18347E-05   -0.62634E-05   720   0.560E-02
  35 F= -.16252233E+03 E0= -.16246591E+03  d E =-.135966E+00
       N       E                     dE             d eps       ncg     rms          rms(c)
DAV:   1    -0.162589479196E+03   -0.67155E-01   -0.43950E+00   552   0.954E+00    0.252E+00
DAV:   2    -0.164324825771E+03   -0.17353E+01   -0.99115E+00  1072   0.244E+01    0.170E+01
DAV:   3    -0.162531954499E+03    0.17929E+01   -0.63323E+00  1080   0.195E+01    0.187E+00
DAV:   4    -0.162573782195E+03   -0.41828E-01   -0.47733E-01   912   0.449E+00    0.966E-01
DAV:   5    -0.162572983923E+03    0.79827E-03   -0.96250E-02   960   0.265E+00    0.975E-01
DAV:   6    -0.162568402545E+03    0.45814E-02   -0.52449E-02   976   0.194E+00    0.511E-01
DAV:   7    -0.162568023131E+03    0.37941E-03   -0.20093E-02  1016   0.109E+00    0.391E-01
DAV:   8    -0.162566546365E+03    0.14768E-02   -0.97370E-03   872   0.686E-01    0.111E-01
DAV:   9    -0.162566678512E+03   -0.13215E-03   -0.20745E-03   896   0.306E-01    0.121E-01
DAV:  10    -0.162566519112E+03    0.15940E-03   -0.10099E-03   912   0.242E-01    0.425E-02
DAV:  11    -0.162566538834E+03   -0.19722E-04   -0.25853E-04   992   0.133E-01    0.668E-02
DAV:  12    -0.162566514099E+03    0.24735E-04   -0.15170E-04   912   0.113E-01    0.227E-02
DAV:  13    -0.162566512382E+03    0.17169E-05   -0.43416E-05   544   0.516E-02
  36 F= -.16256651E+03 E0= -.16250872E+03  d E =-.441865E-01
       N       E                     dE             d eps       ncg     rms          rms(c)
DAV:   1    -0.162592130546E+03   -0.25616E-01   -0.26641E+00   552   0.740E+00    0.197E+00
DAV:   2    -0.163655064959E+03   -0.10629E+01   -0.60708E+00  1072   0.190E+01    0.134E+01
DAV:   3    -0.162555355535E+03    0.10997E+01   -0.39467E+00  1072   0.156E+01    0.151E+00
DAV:   4    -0.162582599490E+03   -0.27244E-01   -0.27658E-01   912   0.350E+00    0.784E-01
DAV:   5    -0.162582540074E+03    0.59416E-04   -0.61761E-02   976   0.216E+00    0.811E-01
DAV:   6    -0.162579065323E+03    0.34748E-02   -0.34210E-02   992   0.155E+00    0.381E-01
DAV:   7    -0.162578870560E+03    0.19476E-03   -0.11803E-02  1016   0.832E-01    0.296E-01
DAV:   8    -0.162578025095E+03    0.84547E-03   -0.53635E-03   864   0.521E-01    0.888E-02
DAV:   9    -0.162578161109E+03   -0.13601E-03   -0.18443E-03   896   0.279E-01    0.120E-01
DAV:  10    -0.162578002992E+03    0.15812E-03   -0.97966E-04   880   0.225E-01    0.349E-02
DAV:  11    -0.162578015872E+03   -0.12880E-04   -0.18504E-04   928   0.113E-01    0.504E-02
DAV:  12    -0.162578002587E+03    0.13286E-04   -0.93060E-05   792   0.968E-02    0.226E-02
DAV:  13    -0.162577999644E+03    0.29431E-05   -0.33242E-05   488   0.496E-02
  37 F= -.16257800E+03 E0= -.16251895E+03  d E =-.556738E-01
       N       E                     dE             d eps       ncg     rms          rms(c)
DAV:   1    -0.162627619903E+03   -0.49617E-01   -0.43989E+00   544   0.869E+00    0.222E+00
DAV:   2    -0.163581674844E+03   -0.95405E+00   -0.62998E+00  1088   0.194E+01    0.119E+01
DAV:   3    -0.162599729993E+03    0.98194E+00   -0.42969E+00  1088   0.178E+01    0.189E+00
DAV:   4    -0.162608098424E+03   -0.83684E-02   -0.34653E-01   880   0.437E+00    0.814E-01
DAV:   5    -0.162615618051E+03   -0.75196E-02   -0.11083E-01  1040   0.281E+00    0.125E+00
DAV:   6    -0.162606319394E+03    0.92987E-02   -0.71260E-02  1056   0.222E+00    0.512E-01
DAV:   7    -0.162606139348E+03    0.18005E-03   -0.28992E-02  1008   0.121E+00    0.403E-01
DAV:   8    -0.162604672913E+03    0.14664E-02   -0.99869E-03   904   0.705E-01    0.135E-01
DAV:   9    -0.162604751249E+03   -0.78336E-04   -0.25145E-03   912   0.328E-01    0.117E-01
DAV:  10    -0.162604619229E+03    0.13202E-03   -0.96937E-04   976   0.233E-01    0.393E-02
DAV:  11    -0.162604625847E+03   -0.66173E-05   -0.31587E-04   904   0.117E-01    0.426E-02
DAV:  12    -0.162604616252E+03    0.95948E-05   -0.13317E-04   840   0.975E-02    0.359E-02
DAV:  13    -0.162604607414E+03    0.88380E-05   -0.40270E-05   520   0.706E-02
  38 F= -.16260461E+03 E0= -.16254443E+03  d E =-.266078E-01
       N       E                     dE             d eps       ncg     rms          rms(c)
DAV:   1    -0.162604657912E+03   -0.41660E-04   -0.50642E-03   556   0.301E-01    0.752E-02
DAV:   2    -0.162605811513E+03   -0.11536E-02   -0.69469E-03  1088   0.657E-01    0.442E-01
DAV:   3    -0.162604655088E+03    0.11564E-02   -0.53417E-03  1088   0.591E-01    0.868E-02
DAV:   4    -0.162604639208E+03    0.15880E-04   -0.45034E-04   904   0.162E-01    0.285E-02
DAV:   5    -0.162604647434E+03   -0.82258E-05   -0.12228E-04   864   0.982E-02    0.411E-02
DAV:   6    -0.162604638273E+03    0.91601E-05   -0.80063E-05   808   0.815E-02
  39 F= -.16260464E+03 E0= -.16254441E+03  d E =-.266386E-01
       N       E                     dE             d eps       ncg     rms          rms(c)
DAV:   1    -0.162623725080E+03   -0.19078E-01   -0.14062E+00   552   0.465E+00    0.104E+00
DAV:   2    -0.162904947599E+03   -0.28122E+00   -0.16330E+00  1072   0.103E+01    0.670E+00
DAV:   3    -0.162619327233E+03    0.28562E+00   -0.12505E+00  1072   0.868E+00    0.115E+00
DAV:   4    -0.162619975729E+03   -0.64850E-03   -0.90157E-02   904   0.220E+00    0.341E-01
DAV:   5    -0.162620876316E+03   -0.90059E-03   -0.17033E-02  1000   0.103E+00    0.426E-01
DAV:   6    -0.162619893235E+03    0.98308E-03   -0.11728E-02  1040   0.875E-01    0.266E-01
DAV:   7    -0.162620019903E+03   -0.12667E-03   -0.68419E-03  1056   0.673E-01    0.262E-01
DAV:   8    -0.162619516030E+03    0.50387E-03   -0.36874E-03  1056   0.437E-01    0.105E-01
DAV:   9    -0.162619467562E+03    0.48468E-04   -0.13688E-03   928   0.250E-01    0.659E-02
DAV:  10    -0.162619430860E+03    0.36703E-04   -0.30809E-04   872   0.132E-01    0.265E-02
DAV:  11    -0.162619426896E+03    0.39635E-05   -0.55795E-05   632   0.641E-02
  40 F= -.16261943E+03 E0= -.16255857E+03  d E =-.147886E-01
       N       E                     dE             d eps       ncg     rms          rms(c)
DAV:   1    -0.162642857248E+03   -0.23426E-01   -0.43811E+00   544   0.827E+00    0.184E+00
DAV:   2    -0.163502114271E+03   -0.85926E+00   -0.51222E+00  1080   0.181E+01    0.115E+01
DAV:   3    -0.162628553294E+03    0.87356E+00   -0.37583E+00  1072   0.148E+01    0.195E+00
DAV:   4    -0.162631131716E+03   -0.25784E-02   -0.29164E-01   928   0.384E+00    0.585E-01
DAV:   5    -0.162633582770E+03   -0.24511E-02   -0.50691E-02   944   0.175E+00    0.698E-01
DAV:   6    -0.162630852405E+03    0.27304E-02   -0.34249E-02  1024   0.149E+00    0.460E-01
DAV:   7    -0.162631410354E+03   -0.55795E-03   -0.20252E-02  1048   0.118E+00    0.492E-01
DAV:   8    -0.162629752252E+03    0.16581E-02   -0.11862E-02  1056   0.814E-01    0.198E-01
DAV:   9    -0.162629578158E+03    0.17409E-03   -0.46659E-03   976   0.463E-01    0.115E-01
DAV:  10    -0.162629465546E+03    0.11261E-03   -0.99385E-04   960   0.245E-01    0.569E-02
DAV:  11    -0.162629451064E+03    0.14482E-04   -0.18477E-04   896   0.122E-01    0.323E-02
DAV:  12    -0.162629455539E+03   -0.44747E-05   -0.10485E-04   808   0.837E-02    0.295E-02
DAV:  13    -0.162629450201E+03    0.53380E-05   -0.53734E-05   624   0.585E-02
  41 F= -.16262945E+03 E0= -.16256736E+03  d E =-.248119E-01
       N       E                     dE             d eps       ncg     rms          rms(c)
DAV:   1    -0.162642255398E+03   -0.12800E-01   -0.15503E+00   544   0.490E+00    0.111E+00
DAV:   2    -0.162914617553E+03   -0.27236E+00   -0.16258E+00  1088   0.107E+01    0.652E+00
DAV:   3    -0.162637335345E+03    0.27728E+00   -0.12319E+00  1080   0.943E+00    0.114E+00
DAV:   4    -0.162637602612E+03   -0.26727E-03   -0.92310E-02   880   0.227E+00    0.456E-01
DAV:   5    -0.162638234087E+03   -0.63148E-03   -0.21285E-02  1016   0.123E+00    0.477E-01
DAV:   6    -0.162637262948E+03    0.97114E-03   -0.12040E-02  1048   0.897E-01    0.289E-01
DAV:   7    -0.162637247490E+03    0.15458E-04   -0.84058E-03  1008   0.631E-01    0.252E-01
DAV:   8    -0.162636905595E+03    0.34190E-03   -0.46474E-03   920   0.476E-01    0.135E-01
DAV:   9    -0.162636738474E+03    0.16712E-03   -0.21141E-03   872   0.296E-01    0.642E-02
DAV:  10    -0.162636712856E+03    0.25618E-04   -0.25015E-04   920   0.117E-01    0.238E-02
DAV:  11    -0.162636709106E+03    0.37494E-05   -0.56358E-05   672   0.605E-02
  42 F= -.16263671E+03 E0= -.16257649E+03  d E =-.725891E-02
       N       E                     dE             d eps       ncg     rms          rms(c)
DAV:   1    -0.162636875671E+03   -0.16282E-03   -0.21957E-02   548   0.591E-01    0.136E-01
DAV:   2    -0.162641024289E+03   -0.41486E-02   -0.23811E-02  1088   0.131E+00    0.827E-01
DAV:   3    -0.162636840805E+03    0.41835E-02   -0.18646E-02  1088   0.113E+00    0.153E-01
DAV:   4    -0.162636814818E+03    0.25987E-04   -0.13977E-03   904   0.282E-01    0.575E-02
DAV:   5    -0.162636824162E+03   -0.93436E-05   -0.32380E-04   984   0.154E-01    0.596E-02
DAV:   6    -0.162636810643E+03    0.13519E-04   -0.17856E-04   984   0.114E-01    0.361E-02
DAV:   7    -0.162636810598E+03    0.44644E-07   -0.13028E-04   816   0.809E-02    0.324E-02
DAV:   8    -0.162636809001E+03    0.15977E-05   -0.76802E-05   688   0.750E-02
  43 F= -.16263681E+03 E0= -.16257677E+03  d E =-.735880E-02
       N       E                     dE             d eps       ncg     rms          rms(c)
DAV:   1    -0.162645946966E+03   -0.91364E-02   -0.12780E+00   552   0.503E+00    0.129E+00
DAV:   2    -0.163030326505E+03   -0.38438E+00   -0.21756E+00  1072   0.118E+01    0.817E+00
DAV:   3    -0.162634933660E+03    0.39539E+00   -0.17127E+00  1080   0.987E+00    0.109E+00
DAV:   4    -0.162640669883E+03   -0.57362E-02   -0.12028E-01   912   0.243E+00    0.530E-01
DAV:   5    -0.162641264638E+03   -0.59476E-03   -0.29379E-02   960   0.150E+00    0.544E-01
DAV:   6    -0.162639305557E+03    0.19591E-02   -0.14469E-02   984   0.107E+00    0.223E-01
DAV:   7    -0.162639369472E+03   -0.63915E-04   -0.64419E-03   904   0.528E-01    0.212E-01
DAV:   8    -0.162638993374E+03    0.37610E-03   -0.27310E-03   928   0.374E-01    0.799E-02
DAV:   9    -0.162639024728E+03   -0.31354E-04   -0.13223E-03   896   0.239E-01    0.838E-02
DAV:  10    -0.162638960718E+03    0.64009E-04   -0.49801E-04   920   0.158E-01    0.326E-02
DAV:  11    -0.162638955245E+03    0.54728E-05   -0.11965E-04   856   0.743E-02    0.205E-02
DAV:  12    -0.162638958626E+03   -0.33801E-05   -0.48622E-05   552   0.680E-02
  44 F= -.16263896E+03 E0= -.16258128E+03  d E =-.214962E-02
       N       E                     dE             d eps       ncg     rms          rms(c)
DAV:   1    -0.162640326843E+03   -0.13716E-02   -0.13617E-01   544   0.162E+00    0.424E-01
DAV:   2    -0.162681393475E+03   -0.41067E-01   -0.22779E-01  1088   0.388E+00    0.267E+00
DAV:   3    -0.162639179509E+03    0.42214E-01   -0.17668E-01  1088   0.347E+00    0.392E-01
DAV:   4    -0.162639814606E+03   -0.63510E-03   -0.14406E-02   928   0.844E-01    0.204E-01
DAV:   5    -0.162639766953E+03    0.47653E-04   -0.31797E-03   904   0.495E-01    0.140E-01
DAV:   6    -0.162639636897E+03    0.13006E-03   -0.14379E-03   960   0.319E-01    0.773E-02
DAV:   7    -0.162639632367E+03    0.45298E-05   -0.71170E-04   880   0.171E-01    0.670E-02
DAV:   8    -0.162639598331E+03    0.34036E-04   -0.31730E-04   904   0.127E-01    0.284E-02
DAV:   9    -0.162639597806E+03    0.52499E-06   -0.15087E-04   880   0.808E-02    0.273E-02
DAV:  10    -0.162639595135E+03    0.26711E-05   -0.54218E-05   536   0.693E-02
  45 F= -.16263960E+03 E0= -.16258116E+03  d E =-.278613E-02
       N       E                     dE             d eps       ncg     rms          rms(c)
DAV:   1    -0.162641260349E+03   -0.16625E-02   -0.12066E-01   544   0.130E+00    0.259E-01
DAV:   2    -0.162656958171E+03   -0.15698E-01   -0.91252E-02  1088   0.240E+00    0.162E+00
DAV:   3    -0.162640966589E+03    0.15992E-01   -0.66572E-02  1080   0.214E+00    0.263E-01
DAV:   4    -0.162641179501E+03   -0.21291E-03   -0.57767E-03   912   0.522E-01    0.113E-01
DAV:   5    -0.162641245152E+03   -0.65651E-04   -0.17276E-03  1032   0.343E-01    0.143E-01
DAV:   6    -0.162641109098E+03    0.13605E-03   -0.10575E-03  1040   0.247E-01    0.529E-02
DAV:   7    -0.162641115648E+03   -0.65496E-05   -0.44545E-04   920   0.141E-01    0.546E-02
DAV:   8    -0.162641089182E+03    0.26465E-04   -0.17835E-04   880   0.938E-02    0.207E-02
DAV:   9    -0.162641087109E+03    0.20734E-05   -0.42614E-05   576   0.533E-02
  46 F= -.16264109E+03 E0= -.16258372E+03  d E =-.149197E-02
       N       E                     dE             d eps       ncg     rms          rms(c)
DAV:   1    -0.162642402260E+03   -0.13131E-02   -0.30442E-01   544   0.206E+00    0.409E-01
DAV:   2    -0.162680767489E+03   -0.38365E-01   -0.22285E-01  1088   0.378E+00    0.253E+00
DAV:   3    -0.162641662571E+03    0.39105E-01   -0.16183E-01  1080   0.337E+00    0.408E-01
DAV:   4    -0.162642208537E+03   -0.54597E-03   -0.14261E-02   920   0.817E-01    0.177E-01
DAV:   5    -0.162642364909E+03   -0.15637E-03   -0.42632E-03  1032   0.540E-01    0.223E-01
DAV:   6    -0.162642032382E+03    0.33253E-03   -0.26880E-03  1040   0.394E-01    0.869E-02
DAV:   7    -0.162642048575E+03   -0.16193E-04   -0.11538E-03   928   0.229E-01    0.889E-02
DAV:   8    -0.162641977401E+03    0.71174E-04   -0.47052E-04   920   0.153E-01    0.331E-02
DAV:   9    -0.162641974724E+03    0.26772E-05   -0.13000E-04   856   0.840E-02    0.225E-02
DAV:  10    -0.162641969059E+03    0.56653E-05   -0.19526E-05   392   0.499E-02
  47 F= -.16264197E+03 E0= -.16258614E+03  d E =-.237392E-02
       N       E                     dE             d eps       ncg     rms          rms(c)
DAV:   1    -0.162643163941E+03   -0.11892E-02   -0.60881E-02   564   0.145E+00    0.464E-01
DAV:   2    -0.162690405366E+03   -0.47241E-01   -0.25849E-01  1088   0.422E+00    0.288E+00
DAV:   3    -0.162641363226E+03    0.49042E-01   -0.21062E-01  1088   0.368E+00    0.403E-01
DAV:   4    -0.162642213258E+03   -0.85003E-03   -0.15111E-02   904   0.839E-01    0.200E-01
DAV:   5    -0.162642307040E+03   -0.93782E-04   -0.43688E-03   968   0.581E-01    0.194E-01
DAV:   6    -0.162642015152E+03    0.29189E-03   -0.23560E-03   952   0.378E-01    0.702E-02
DAV:   7    -0.162642011706E+03    0.34462E-05   -0.56727E-04   904   0.173E-01    0.623E-02
DAV:   8    -0.162641985754E+03    0.25952E-04   -0.23513E-04  1016   0.123E-01    0.362E-02
DAV:   9    -0.162641986142E+03   -0.38822E-06   -0.12931E-04   864   0.998E-02    0.386E-02
DAV:  10    -0.162641982447E+03    0.36955E-05   -0.84580E-05   736   0.858E-02
  48 F= -.16264198E+03 E0= -.16258629E+03  d E =-.133883E-04
       N       E                     dE             d eps       ncg     rms          rms(c)
DAV:   1    -0.162642410310E+03   -0.42417E-03   -0.15878E-02   580   0.737E-01    0.240E-01
DAV:   2    -0.162655183576E+03   -0.12773E-01   -0.68949E-02  1088   0.219E+00    0.149E+00
DAV:   3    -0.162641920359E+03    0.13263E-01   -0.56294E-02  1088   0.197E+00    0.210E-01
DAV:   4    -0.162642157875E+03   -0.23752E-03   -0.42082E-03   904   0.442E-01    0.101E-01
DAV:   5    -0.162642192783E+03   -0.34908E-04   -0.11522E-03   968   0.297E-01    0.992E-02
DAV:   6    -0.162642116242E+03    0.76541E-04   -0.61614E-04   944   0.192E-01    0.347E-02
DAV:   7    -0.162642116849E+03   -0.60645E-06   -0.13180E-04   832   0.833E-02    0.312E-02
DAV:   8    -0.162642109008E+03    0.78409E-05   -0.32505E-05   488   0.558E-02
  49 F= -.16264211E+03 E0= -.16258635E+03  d E =-.139949E-03
       N       E                     dE             d eps       ncg     rms          rms(c)
DAV:   1    -0.162642117740E+03   -0.89135E-06   -0.22209E-04   768   0.885E-02    0.335E-02
DAV:   2    -0.162642408184E+03   -0.29044E-03   -0.15896E-03  1088   0.327E-01    0.224E-01
DAV:   3    -0.162642105380E+03    0.30280E-03   -0.12653E-03  1088   0.299E-01    0.302E-02
DAV:   4    -0.162642109497E+03   -0.41171E-05   -0.79951E-05   736   0.608E-02
  50 F= -.16264211E+03 E0= -.16258636E+03  d E =-.140438E-03
       N       E                     dE             d eps       ncg     rms          rms(c)
DAV:   1    -0.162642306055E+03   -0.20067E-03   -0.26081E-02   544   0.563E-01    0.923E-02
DAV:   2    -0.162644351498E+03   -0.20454E-02   -0.13154E-02  1072   0.885E-01    0.552E-01
DAV:   3    -0.162642362674E+03    0.19888E-02   -0.95630E-03  1088   0.791E-01    0.146E-01
DAV:   4    -0.162642264867E+03    0.97807E-04   -0.87790E-04   928   0.256E-01    0.402E-02
DAV:   5    -0.162642269708E+03   -0.48411E-05   -0.12848E-04   792   0.910E-02    0.373E-02
DAV:   6    -0.162642267766E+03    0.19419E-05   -0.98145E-05   792   0.893E-02
  51 F= -.16264227E+03 E0= -.16258652E+03  d E =-.158269E-03
       N       E                     dE             d eps       ncg     rms          rms(c)
DAV:   1    -0.162642276650E+03   -0.69423E-05   -0.30910E-03   544   0.213E-01    0.432E-02
DAV:   2    -0.162642663738E+03   -0.38709E-03   -0.22114E-03  1056   0.401E-01    0.240E-01
DAV:   3    -0.162642272760E+03    0.39098E-03   -0.17747E-03  1056   0.360E-01    0.488E-02
DAV:   4    -0.162642271375E+03    0.13845E-05   -0.14376E-04   856   0.922E-02    0.251E-02
DAV:   5    -0.162642271823E+03   -0.44813E-06   -0.27046E-05   452   0.577E-02
  52 F= -.16264227E+03 E0= -.16258655E+03  d E =-.162326E-03
       N       E                     dE             d eps       ncg     rms          rms(c)
DAV:   1    -0.162642250522E+03    0.20853E-04   -0.12202E-02   544   0.384E-01    0.656E-02
DAV:   2    -0.162643266223E+03   -0.10157E-02   -0.63851E-03  1072   0.622E-01    0.396E-01
DAV:   3    -0.162642269751E+03    0.99647E-03   -0.46334E-03  1088   0.557E-01    0.994E-02
DAV:   4    -0.162642228021E+03    0.41729E-04   -0.41689E-04   928   0.173E-01    0.306E-02
DAV:   5    -0.162642232067E+03   -0.40460E-05   -0.73981E-05   720   0.721E-02
  53 F= -.16264223E+03 E0= -.16258654E+03  d E =-.122571E-03
       N       E                     dE             d eps       ncg     rms          rms(c)
DAV:   1    -0.162642280960E+03   -0.52938E-04   -0.61879E-03   544   0.288E-01    0.554E-02
DAV:   2    -0.162642971459E+03   -0.69050E-03   -0.44823E-03  1072   0.516E-01    0.320E-01
DAV:   3    -0.162642293153E+03    0.67831E-03   -0.33292E-03  1088   0.459E-01    0.802E-02
DAV:   4    -0.162642266134E+03    0.27019E-04   -0.32033E-04   936   0.153E-01    0.248E-02
DAV:   5    -0.162642264209E+03    0.19247E-05   -0.31633E-05   488   0.563E-02
  54 F= -.16264226E+03 E0= -.16258654E+03  d E =-.154713E-03
       N       E                     dE             d eps       ncg     rms          rms(c)
DAV:   1    -0.162642270410E+03   -0.42763E-05   -0.46173E-04   548   0.766E-02    0.186E-02
DAV:   2    -0.162642333689E+03   -0.63279E-04   -0.41749E-04  1088   0.155E-01    0.104E-01
DAV:   3    -0.162642269187E+03    0.64502E-04   -0.28944E-04  1088   0.139E-01    0.238E-02
DAV:   4    -0.162642266521E+03    0.26662E-05   -0.15980E-05   324   0.425E-02
  55 F= -.16264227E+03 E0= -.16258654E+03  d E =-.157024E-03
       N       E                     dE             d eps       ncg     rms          rms(c)
DAV:   1    -0.162642346941E+03   -0.77754E-04   -0.12473E-02   544   0.396E-01    0.481E-02
DAV:   2    -0.162642701201E+03   -0.35426E-03   -0.28042E-03  1040   0.389E-01    0.196E-01
DAV:   3    -0.162642364775E+03    0.33643E-03   -0.19173E-03  1088   0.339E-01    0.619E-02
DAV:   4    -0.162642348274E+03    0.16501E-04   -0.12987E-04   832   0.102E-01    0.227E-02
DAV:   5    -0.162642348353E+03   -0.78843E-07   -0.56683E-05   640   0.607E-02
  56 F= -.16264235E+03 E0= -.16258665E+03  d E =-.818319E-04
       N       E                     dE             d eps       ncg     rms          rms(c)
DAV:   1    -0.162642329752E+03    0.18522E-04   -0.58203E-02   544   0.856E-01    0.992E-02
DAV:   2    -0.162643780738E+03   -0.14510E-02   -0.11791E-02  1032   0.800E-01    0.378E-01
DAV:   3    -0.162642375185E+03    0.14056E-02   -0.77239E-03  1088   0.690E-01    0.936E-02
DAV:   4    -0.162642354904E+03    0.20281E-04   -0.53721E-04   960   0.202E-01    0.564E-02
DAV:   5    -0.162642373163E+03   -0.18259E-04   -0.41290E-04  1032   0.164E-01    0.872E-02
DAV:   6    -0.162642331134E+03    0.42029E-04   -0.38802E-04  1072   0.166E-01    0.483E-02
DAV:   7    -0.162642329574E+03    0.15605E-05   -0.18731E-04  1000   0.115E-01    0.416E-02
DAV:   8    -0.162642322498E+03    0.70759E-05   -0.91126E-05   824   0.841E-02
  57 F= -.16264232E+03 E0= -.16258666E+03  d E =-.559766E-04
       N       E                     dE             d eps       ncg     rms          rms(c)
DAV:   1    -0.162642358923E+03   -0.29349E-04   -0.16178E-02   544   0.452E-01    0.527E-02
DAV:   2    -0.162642786872E+03   -0.42795E-03   -0.34977E-03   992   0.421E-01    0.199E-01
DAV:   3    -0.162642372646E+03    0.41423E-03   -0.22832E-03  1072   0.364E-01    0.461E-02
DAV:   4    -0.162642368746E+03    0.38999E-05   -0.13547E-04   888   0.984E-02    0.302E-02
DAV:   5    -0.162642375675E+03   -0.69289E-05   -0.10877E-04   848   0.891E-02    0.450E-02
DAV:   6    -0.162642364198E+03    0.11477E-04   -0.88678E-05   820   0.897E-02    0.196E-02
DAV:   7    -0.162642361722E+03    0.24757E-05   -0.26873E-05   408   0.539E-02
  58 F= -.16264236E+03 E0= -.16258668E+03  d E =-.952013E-04
       N       E                     dE             d eps       ncg     rms          rms(c)
DAV:   1    -0.162642513044E+03   -0.14885E-03   -0.14931E-02   552   0.602E-01    0.181E-01
DAV:   2    -0.162650874985E+03   -0.83619E-02   -0.43082E-02  1088   0.173E+00    0.122E+00
DAV:   3    -0.162642199234E+03    0.86758E-02   -0.34523E-02  1088   0.154E+00    0.142E-01
DAV:   4    -0.162642430764E+03   -0.23153E-03   -0.24186E-03   936   0.321E-01    0.838E-02
DAV:   5    -0.162642416313E+03    0.14451E-04   -0.44002E-04   904   0.187E-01    0.483E-02
DAV:   6    -0.162642399230E+03    0.17083E-04   -0.21168E-04   880   0.107E-01    0.270E-02
DAV:   7    -0.162642398410E+03    0.82029E-06   -0.53906E-05   600   0.550E-02
  59 F= -.16264240E+03 E0= -.16258664E+03  d E =-.366876E-04
       N       E                     dE             d eps       ncg     rms          rms(c)
DAV:   1    -0.162642405564E+03   -0.63338E-05   -0.66785E-04   592   0.134E-01    0.379E-02
DAV:   2    -0.162642767996E+03   -0.36243E-03   -0.18980E-03  1088   0.366E-01    0.253E-01
DAV:   3    -0.162642391859E+03    0.37614E-03   -0.15368E-03  1088   0.322E-01    0.310E-02
DAV:   4    -0.162642399497E+03   -0.76384E-05   -0.95058E-05   752   0.687E-02
  60 F= -.16264240E+03 E0= -.16258668E+03  d E =-.377747E-04
