 vasp.5.4.4.18Apr17-6-g9f103f2a35 (build Jul 11 2019 11:52:51) complex          
  
 executed on             LinuxIFC date 2023.11.29  16:54:11
 running on    4 total cores
 distrk:  each k-point on    4 cores,    1 groups
 distr:  one band on NCORES_PER_BAND=   1 cores,    4 groups


--------------------------------------------------------------------------------------------------------


 INCAR:
 POTCAR:    PAW_PBE V 08Apr2002                   
 POTCAR:    PAW_PBE Fe 06Sep2000                  
 POTCAR:    PAW_PBE V 08Apr2002                   
   VRHFIN =V: p6 d4 s1                                                          
   LEXCH  = PE                                                                  
   EATOM  =   170.8679 eV,   12.5584 Ry                                         
                                                                                
   TITEL  = PAW_PBE V 08Apr2002                                                 
   LULTRA =        F    use ultrasoft PP ?                                      
   IUNSCR =        1    unscreen: 0-lin 1-nonlin 2-no                           
   RPACOR =    2.000    partial core radius                                     
   POMASS =   50.941; ZVAL   =    5.000    mass and valenz                      
   RCORE  =    2.700    outmost cutoff radius                                   
   RWIGS  =    2.500; RWIGS  =    1.323    wigner-seitz radius (au A)           
   ENMAX  =  192.543; ENMIN  =  144.408 eV                                      
   RCLOC  =    1.779    cutoff for local pot                                    
   LCOR   =        T    correct aug charges                                     
   LPAW   =        T    paw PP                                                  
   EAUG   =  358.662                                                            
   DEXC   =    0.000                                                            
   RMAX   =    2.768    core radius for proj-oper                               
   RAUG   =    1.300    factor for augmentation sphere                          
   RDEP   =    2.762    radius for radial grids                                 
   RDEPT  =    2.240    core radius for aug-charge                              
                                                                                
   Atomic configuration                                                         
    9 entries                                                                   
     n  l   j            E        occ.                                          
     1  0  0.50     -5360.7193   2.0000                                         
     2  0  0.50      -598.4546   2.0000                                         
     2  1  1.50      -499.0155   6.0000                                         
     3  0  0.50       -66.5711   2.0000                                         
     3  1  1.50       -40.5282   6.0000                                         
     3  2  2.50        -2.4291   4.0000                                         
     4  0  0.50        -3.8743   1.0000                                         
     4  1  0.50        -2.7212   0.0000                                         
     4  3  2.50        -1.3606   0.0000                                         
   Description                                                                  
     l       E           TYP  RCUT    TYP  RCUT                                 
     2     -2.4290901     23  2.700                                             
     2     -3.7896727     23  2.700                                             
     0     -3.8742752     23  2.700                                             
     0     27.2116520     23  2.700                                             
     1     -2.7211652     23  2.700                                             
     1     27.2116520     23  2.700                                             
  local pseudopotential read in
  partial core-charges read in
  partial kinetic energy density read in
  atomic valenz-charges read in
  non local Contribution for L=           2  read in
    real space projection operators read in
  non local Contribution for L=           2  read in
    real space projection operators read in
  non local Contribution for L=           0  read in
    real space projection operators read in
  non local Contribution for L=           0  read in
    real space projection operators read in
  non local Contribution for L=           1  read in
    real space projection operators read in
  non local Contribution for L=           1  read in
    real space projection operators read in
    PAW grid and wavefunctions read in
 
   number of l-projection  operators is LMAX  =           6
   number of lm-projection operators is LMMAX =          18
 
 POTCAR:    PAW_PBE Fe 06Sep2000                  
   VRHFIN =Fe:  d7 s1                                                           
   LEXCH  = PE                                                                  
   EATOM  =   594.3153 eV,   43.6809 Ry                                         
                                                                                
   TITEL  = PAW_PBE Fe 06Sep2000                                                
   LULTRA =        F    use ultrasoft PP ?                                      
   IUNSCR =        1    unscreen: 0-lin 1-nonlin 2-no                           
   RPACOR =    2.000    partial core radius                                     
   POMASS =   55.847; ZVAL   =    8.000    mass and valenz                      
   RCORE  =    2.300    outmost cutoff radius                                   
   RWIGS  =    2.460; RWIGS  =    1.302    wigner-seitz radius (au A)           
   ENMAX  =  267.882; ENMIN  =  200.911 eV                                      
   RCLOC  =    1.701    cutoff for local pot                                    
   LCOR   =        T    correct aug charges                                     
   LPAW   =        T    paw PP                                                  
   EAUG   =  511.368                                                            
   DEXC   =    0.000                                                            
   RMAX   =    2.356    core radius for proj-oper                               
   RAUG   =    1.300    factor for augmentation sphere                          
   RDEP   =    2.442    radius for radial grids                                 
   RDEPT  =    1.890    core radius for aug-charge                              
                                                                                
   Atomic configuration                                                         
    9 entries                                                                   
     n  l   j            E        occ.                                          
     1  0  0.50     -6993.8440   2.0000                                         
     2  0  0.50      -814.6047   2.0000                                         
     2  1  1.50      -693.3689   6.0000                                         
     3  0  0.50       -89.4732   2.0000                                         
     3  1  1.50       -55.6373   6.0000                                         
     3  2  2.50        -3.8151   7.0000                                         
     4  0  0.50        -4.2551   1.0000                                         
     4  1  1.50        -3.4015   0.0000                                         
     4  3  2.50        -1.3606   0.0000                                         
   Description                                                                  
     l       E           TYP  RCUT    TYP  RCUT                                 
     2     -3.8151135     23  2.300                                             
     2     -5.1756961     23  2.300                                             
     0     -4.2550963     23  2.300                                             
     0      7.2035603     23  2.300                                             
     1     -2.7211652     23  2.300                                             
     1     18.4316424     23  2.300                                             
  local pseudopotential read in
  partial core-charges read in
  partial kinetic energy density read in
  atomic valenz-charges read in
  non local Contribution for L=           2  read in
    real space projection operators read in
  non local Contribution for L=           2  read in
    real space projection operators read in
  non local Contribution for L=           0  read in
    real space projection operators read in
  non local Contribution for L=           0  read in
    real space projection operators read in
  non local Contribution for L=           1  read in
    real space projection operators read in
  non local Contribution for L=           1  read in
    real space projection operators read in
    PAW grid and wavefunctions read in
 
   number of l-projection  operators is LMAX  =           6
   number of lm-projection operators is LMMAX =          18
 

 ----------------------------------------------------------------------------- 
|                                                                             |
|  ADVICE TO THIS USER RUNNING 'VASP/VAMP'   (HEAR YOUR MASTER'S VOICE ...):  |
|                                                                             |
|      You have a (more or less) 'large supercell' and for larger cells       |
|      it might be more efficient to use real space projection opertators     |
|      So try LREAL= Auto  in the INCAR   file.                               |
|      Mind:          For very  accurate calculation you might also keep the  |
|      reciprocal projection scheme          (i.e. LREAL=.FALSE.)             |
|                                                                             |
 ----------------------------------------------------------------------------- 

  PAW_PBE V 08Apr2002                   :
 energy of atom  1       EATOM= -170.8679
 kinetic energy error for atom=    0.0066 (will be added to EATOM!!)
  PAW_PBE Fe 06Sep2000                  :
 energy of atom  2       EATOM= -594.3153
 kinetic energy error for atom=    0.0346 (will be added to EATOM!!)
 
 
 POSCAR: EA0    10.265  5.095  4.953 90.00 90.00 
  positions in direct lattice
  No initial velocities read in
 exchange correlation table for  LEXCH =        8
   RHO(1)=    0.500       N(1)  =     2000
   RHO(2)=  100.500       N(2)  =     4000
 


--------------------------------------------------------------------------------------------------------


 ion  position               nearest neighbor table
   1  0.000  0.000  0.250-  12 2.14  11 2.14  13 2.14  10 2.14  18 2.48  18 2.48   8 2.91   9 2.91

   2  0.500  0.500  0.750-  15 2.14  16 2.14  14 2.14  17 2.14   3 2.48   3 2.48   7 2.91   6 2.91

   3  0.500  0.500  0.250-  16 2.14  15 2.14  17 2.14  14 2.14   2 2.48   2 2.48   5 2.91   4 2.91

   4  0.217  0.500  0.250-  17 2.14  11 2.14  12 2.14  14 2.14   6 2.48   6 2.48   8 2.64   8 2.64
                             3 2.91
   5  0.783  0.500  0.250-  16 2.14  10 2.14  13 2.14  15 2.14   7 2.48   7 2.48   9 2.64   9 2.64
                             3 2.91
   6  0.217  0.500  0.750-  12 2.14  11 2.14  14 2.14  17 2.14   4 2.48   4 2.48  19 2.64  19 2.64
                             2 2.91
   7  0.783  0.500  0.750-  13 2.14  10 2.14  15 2.14  16 2.14   5 2.48   5 2.48  20 2.64  20 2.64
                             2 2.91
   8  0.283  0.000  0.250-  14 2.14  17 2.14  12 2.14  11 2.14  19 2.48  19 2.48   4 2.64   4 2.64
                             1 2.91
   9  0.717  0.000  0.250-  15 2.14  16 2.14  13 2.14  10 2.14  20 2.48  20 2.48   5 2.64   5 2.64
                             1 2.91
  10  0.858  0.192  0.000-   7 2.14  20 2.14   5 2.14  18 2.14   9 2.14   1 2.14  13 3.15  13 3.15

  11  0.142  0.809  0.000-   6 2.14  19 2.14   4 2.14  18 2.14   1 2.14   8 2.14  12 3.15  12 3.15

  12  0.142  0.192  0.500-   6 2.14   4 2.14  19 2.14  18 2.14   1 2.14   8 2.14  11 3.15  11 3.15

  13  0.858  0.809  0.500-   7 2.14   5 2.14  20 2.14   9 2.14  18 2.14   1 2.14  10 3.15  10 3.15

  14  0.358  0.309  0.000-   8 2.14  19 2.14   4 2.14   6 2.14   2 2.14   3 2.14  17 3.15  17 3.15

  15  0.642  0.692  0.000-   9 2.14  20 2.14   5 2.14   3 2.14   2 2.14   7 2.14  16 3.15  16 3.15

  16  0.642  0.309  0.500-   9 2.14   5 2.14  20 2.14   3 2.14   2 2.14   7 2.14  15 3.15  15 3.15

  17  0.358  0.692  0.500-   8 2.14   4 2.14  19 2.14   3 2.14   6 2.14   2 2.14  14 3.15  14 3.15

  18  0.000  0.000  0.750-  11 2.14  12 2.14  10 2.14  13 2.14   1 2.48   1 2.48  19 2.91  20 2.91

  19  0.283  0.000  0.750-  11 2.14  17 2.14  14 2.14  12 2.14   8 2.48   8 2.48   6 2.64   6 2.64
                            18 2.91
  20  0.717  0.000  0.750-  10 2.14  16 2.14  15 2.14  13 2.14   9 2.48   9 2.48   7 2.64   7 2.64
                            18 2.91
 
  LATTYP: Found a simple orthorhombic cell.
 ALAT       =     4.9532360000
 B/A-ratio  =     1.0287050728
 C/A-ratio  =     2.0723472494
  
  Lattice vectors:
  
 A1 = (   0.0000000000,   0.0000000000,  -4.9532360000)
 A2 = (   0.0000000000,  -5.0954190000,   0.0000000000)
 A3 = ( -10.2648250000,   0.0000000000,   0.0000000000)


Analysis of symmetry for initial positions (statically):
=====================================================================
 Subroutine PRICEL returns:
 Original cell was already a primitive cell.
 

 Routine SETGRP: Setting up the symmetry group for a 
 simple orthorhombic supercell.


 Subroutine GETGRP returns: Found  1 space group operations
 (whereof  1 operations were pure point group operations)
 out of a pool of  8 trial point group operations.


The static configuration has the point symmetry C_1 .


Analysis of symmetry for dynamics (positions and initial velocities):
=====================================================================
 Subroutine PRICEL returns:
 Original cell was already a primitive cell.
 

 Routine SETGRP: Setting up the symmetry group for a 
 simple orthorhombic supercell.


 Subroutine GETGRP returns: Found  1 space group operations
 (whereof  1 operations were pure point group operations)
 out of a pool of  8 trial point group operations.


The dynamic configuration has the point symmetry C_1 .


 Subroutine INISYM returns: Found  1 space group operations
 (whereof  1 operations are pure point group operations),
 and found     1 'primitive' translations

 
 
 KPOINTS: EA                                      

Automatic generation of k-mesh.
Space group operators:
 irot       det(A)        alpha          n_x          n_y          n_z        tau_x        tau_y        tau_z
    1     1.000000     0.000000     1.000000     0.000000     0.000000     0.000000     0.000000     0.000000
 
 Subroutine IBZKPT returns following result:
 ===========================================
 
 Found      4 irreducible k-points:
 
 Following reciprocal coordinates:
            Coordinates               Weight
  0.000000  0.000000  0.000000      1.000000
  0.000000  0.500000  0.000000      1.000000
  0.000000  0.000000  0.333333      2.000000
  0.000000  0.500000  0.333333      2.000000
 
 Following cartesian coordinates:
            Coordinates               Weight
  0.000000  0.000000  0.000000      1.000000
  0.000000  0.098127  0.000000      1.000000
  0.000000  0.000000  0.067296      2.000000
  0.000000  0.098127  0.067296      2.000000
 


--------------------------------------------------------------------------------------------------------




 Dimension of arrays:
   k-points           NKPTS =      4   k-points in BZ     NKDIM =      4   number of bands    NBANDS=     68
   number of dos      NEDOS =    301   number of ions     NIONS =     20
   non local maximal  LDIM  =      6   non local SUM 2l+1 LMDIM =     18
   total plane-waves  NPLWV =  16800
   max r-space proj   IRMAX =      1   max aug-charges    IRDMAX=   4132
   dimension x,y,z NGX =    42 NGY =   20 NGZ =   20
   dimension x,y,z NGXF=    84 NGYF=   40 NGZF=   40
   support grid    NGXF=    84 NGYF=   40 NGZF=   40
   ions per type =              17   3
   NGX,Y,Z   is equivalent  to a cutoff of   6.80,  6.53,  6.71 a.u.
   NGXF,Y,Z  is equivalent  to a cutoff of  13.60, 13.05, 13.43 a.u.

 SYSTEM =  unknown system                          
 POSCAR =  EA0    10.265  5.095  4.953 90.00 90.00 

 Startparameter for this run:
   NWRITE =      2    write-flag & timer
   PREC   = normal    normal or accurate (medium, high low for compatibility)
   ISTART =      0    job   : 0-new  1-cont  2-samecut
   ICHARG =      2    charge: 1-file 2-atom 10-const
   ISPIN  =      1    spin polarized calculation?
   LNONCOLLINEAR =      F non collinear calculations
   LSORBIT =      F    spin-orbit coupling
   INIWAV =      1    electr: 0-lowe 1-rand  2-diag
   LASPH  =      F    aspherical Exc in radial PAW
   METAGGA=      F    non-selfconsistent MetaGGA calc.

 Electronic Relaxation 1
   ENCUT  =  267.9 eV  19.69 Ry    4.44 a.u.  13.70  6.80  6.61*2*pi/ulx,y,z
   ENINI  =  267.9     initial cutoff
   ENAUG  =  511.4 eV  augmentation charge cutoff
   NELM   =     60;   NELMIN=  2; NELMDL= -5     # of ELM steps 
   EDIFF  = 0.1E-04   stopping-criterion for ELM
   LREAL  =      F    real-space projection
   NLSPLINE    = F    spline interpolate recip. space projectors
   LCOMPAT=      F    compatible to vasp.4.4
   GGA_COMPAT  = T    GGA compatible to vasp.4.4-vasp.4.6
   LMAXPAW     = -100 max onsite density
   LMAXMIX     =    2 max onsite mixed and CHGCAR
   VOSKOWN=      0    Vosko Wilk Nusair interpolation
   ROPT   =    0.00000   0.00000
 Ionic relaxation
   EDIFFG = -.1E-01   stopping-criterion for IOM
   NSW    =    500    number of steps for IOM
   NBLOCK =      1;   KBLOCK =    500    inner block; outer block 
   IBRION =      2    ionic relax: 0-MD 1-quasi-New 2-CG
   NFREE  =      1    steps in history (QN), initial steepest desc. (CG)
   ISIF   =      3    stress and relaxation
   IWAVPR =     11    prediction:  0-non 1-charg 2-wave 3-comb
   ISYM   =      2    0-nonsym 1-usesym 2-fastsym
   LCORR  =      T    Harris-Foulkes like correction to forces

   POTIM  = 0.5000    time-step for ionic-motion
   TEIN   =    0.0    initial temperature
   TEBEG  =    0.0;   TEEND  =   0.0 temperature during run
   SMASS  =  -3.00    Nose mass-parameter (am)
   estimated Nose-frequenzy (Omega)   =  0.10E-29 period in steps =****** mass=  -0.241E-26a.u.
   SCALEE = 1.0000    scale energy and forces
   NPACO  =    256;   APACO  = 16.0  distance and # of slots for P.C.
   PSTRESS=    0.0 pullay stress

  Mass of Ions in am
   POMASS =  50.94 55.85
  Ionic Valenz
   ZVAL   =   5.00  8.00
  Atomic Wigner-Seitz radii
   RWIGS  =  -1.00 -1.00
  virtual crystal weights 
   VCA    =   1.00  1.00
   NELECT =     109.0000    total number of electrons
   NUPDOWN=      -1.0000    fix difference up-down

 DOS related values:
   EMIN   =  10.00;   EMAX   =-10.00  energy-range for DOS
   EFERMI =   0.00
   ISMEAR =     0;   SIGMA  =   0.10  broadening in eV -4-tet -1-fermi 0-gaus

 Electronic relaxation 2 (details)
   IALGO  =     38    algorithm
   LDIAG  =      T    sub-space diagonalisation (order eigenvalues)
   LSUBROT=      F    optimize rotation matrix (better conditioning)
   TURBO    =      0    0=normal 1=particle mesh
   IRESTART =      0    0=no restart 2=restart with 2 vectors
   NREBOOT  =      0    no. of reboots
   NMIN     =      0    reboot dimension
   EREF     =   0.00    reference energy to select bands
   IMIX   =      4    mixing-type and parameters
     AMIX     =   0.40;   BMIX     =  1.00
     AMIX_MAG =   1.60;   BMIX_MAG =  1.00
     AMIN     =   0.10
     WC   =   100.;   INIMIX=   1;  MIXPRE=   1;  MAXMIX= -45

 Intra band minimization:
   WEIMIN = 0.0010     energy-eigenvalue tresh-hold
   EBREAK =  0.37E-07  absolut break condition
   DEPER  =   0.30     relativ break condition  

   TIME   =   0.40     timestep for ELM

  volume/ion in A,a.u.               =      12.95        87.42
  Fermi-wavevector in a.u.,A,eV,Ry     =   1.226715  2.318154 20.474435  1.504829
  Thomas-Fermi vector in A             =   2.361705
 
 Write flags
   LWAVE        =      F    write WAVECAR
   LDOWNSAMPLE  =      F    k-point downsampling of WAVECAR
   LCHARG       =      F    write CHGCAR
   LVTOT        =      F    write LOCPOT, total local potential
   LVHAR        =      F    write LOCPOT, Hartree potential only
   LELF         =      F    write electronic localiz. function (ELF)
   LORBIT       =      0    0 simple, 1 ext, 2 COOP (PROOUT), +10 PAW based schemes


 Dipole corrections
   LMONO  =      F    monopole corrections only (constant potential shift)
   LDIPOL =      F    correct potential (dipole corrections)
   IDIPOL =      0    1-x, 2-y, 3-z, 4-all directions 
   EPSILON=  1.0000000 bulk dielectric constant

 Exchange correlation treatment:
   GGA     =    --    GGA type
   LEXCH   =     8    internal setting for exchange type
   VOSKOWN=      0    Vosko Wilk Nusair interpolation
   LHFCALC =     F    Hartree Fock is set to
   LHFONE  =     F    Hartree Fock one center treatment
   AEXX    =    0.0000 exact exchange contribution

 Linear response parameters
   LEPSILON=     F    determine dielectric tensor
   LRPA    =     F    only Hartree local field effects (RPA)
   LNABLA  =     F    use nabla operator in PAW spheres
   LVEL    =     F    velocity operator in full k-point grid
   LINTERFAST=   F  fast interpolation
   KINTER  =     0    interpolate to denser k-point grid
   CSHIFT  =0.1000    complex shift for real part using Kramers Kronig
   OMEGAMAX=  -1.0    maximum frequency
   DEG_THRESHOLD= 0.2000000E-02 threshold for treating states as degnerate
   RTIME   =   -0.100 relaxation time in fs
  (WPLASMAI=    0.000 imaginary part of plasma frequency in eV, 0.658/RTIME)
   DFIELD  = 0.0000000 0.0000000 0.0000000 field for delta impulse in time
 
 Orbital magnetization related:
   ORBITALMAG=     F  switch on orbital magnetization
   LCHIMAG   =     F  perturbation theory with respect to B field
   DQ        =  0.001000  dq finite difference perturbation B field
   LLRAUG    =     F  two centre corrections for induced B field



--------------------------------------------------------------------------------------------------------


 conjugate gradient relaxation of ions
 charge density and potential will be updated during run
 non-spin polarized calculation
 Variant of blocked Davidson
 Davidson routine will perform the subspace rotation
 perform sub-space diagonalisation
    after iterative eigenvector-optimisation
 modified Broyden-mixing scheme, WC =      100.0
 initial mixing is a Kerker type mixing with AMIX =  0.4000 and BMIX =      1.0000
 Hartree-type preconditioning will be used
 using additional bands           13
 reciprocal scheme for non local part
 use partial core corrections
 calculate Harris-corrections to forces 
   (improved forces if not selfconsistent)
 use gradient corrections 
 use of overlap-Matrix (Vanderbilt PP)
 Gauss-broadening in eV      SIGMA  =   0.10


--------------------------------------------------------------------------------------------------------


  energy-cutoff  :      267.88
  volume of cell :      259.07
      direct lattice vectors                 reciprocal lattice vectors
    10.264825000  0.000000000  0.000000000     0.097420073  0.000000000  0.000000000
     0.000000000  5.095419000  0.000000000     0.000000000  0.196254714  0.000000000
     0.000000000  0.000000000  4.953236000     0.000000000  0.000000000  0.201888220

  length of vectors
    10.264825000  5.095419000  4.953236000     0.097420073  0.196254714  0.201888220


 
 k-points in units of 2pi/SCALE and weight: EA                                      
   0.00000000  0.00000000  0.00000000       0.167
   0.00000000  0.09812736  0.00000000       0.167
   0.00000000  0.00000000  0.06729607       0.333
   0.00000000  0.09812736  0.06729607       0.333
 
 k-points in reciprocal lattice and weights: EA                                      
   0.00000000  0.00000000  0.00000000       0.167
   0.00000000  0.50000000  0.00000000       0.167
   0.00000000  0.00000000  0.33333333       0.333
   0.00000000  0.50000000  0.33333333       0.333
 
 position of ions in fractional coordinates (direct lattice) 
   0.00012000  0.00012000  0.25012000
   0.50012000  0.50012000  0.75012000
   0.50012000  0.50012000  0.25012000
   0.21692000  0.50012000  0.25012000
   0.78330000  0.50010000  0.25012000
   0.21690000  0.50010000  0.75012000
   0.78332000  0.50012000  0.75012000
   0.28332000  0.00012000  0.25012000
   0.71690000  0.00010000  0.25012000
   0.85850000  0.19172000  0.00010000
   0.14172000  0.80850000  0.00010000
   0.14172000  0.19172000  0.50012000
   0.85850000  0.80850000  0.50012000
   0.35850000  0.30850000  0.00012000
   0.64172000  0.69172000  0.00012000
   0.64172000  0.30850000  0.50010000
   0.35850000  0.69172000  0.50010000
   0.00012000  0.00012000  0.75012000
   0.28330000  0.00010000  0.75012000
   0.71692000  0.00012000  0.75012000
 
 position of ions in cartesian coordinates  (Angst):
   0.00123178  0.00061145  1.23890339
   5.13364428  2.54832095  3.71552139
   5.13364428  2.54832095  1.23890339
   2.22664584  2.54832095  1.23890339
   8.04043742  2.54821904  1.23890339
   2.22644054  2.54821904  3.71552139
   8.04064272  2.54832095  3.71552139
   2.90823022  0.00061145  1.23890339
   7.35885304  0.00050954  1.23890339
   8.81235226  0.97689373  0.00049532
   1.45473100  4.11964626  0.00049532
   1.45473100  0.97689373  2.47721239
   8.81235226  4.11964626  2.47721239
   3.67993976  1.57193676  0.00059439
   6.58714350  3.52460323  0.00059439
   6.58714350  1.57193676  2.47711332
   3.67993976  3.52460323  2.47711332
   0.00123178  0.00061145  3.71552139
   2.90802492  0.00050954  3.71552139
   7.35905834  0.00061145  3.71552139
 


--------------------------------------------------------------------------------------------------------


 k-point  1 :   0.0000 0.0000 0.0000  plane waves:    2603
 k-point  2 :   0.0000 0.5000 0.0000  plane waves:    2574
 k-point  3 :   0.0000 0.0000 0.3333  plane waves:    2573
 k-point  4 :   0.0000 0.5000 0.3333  plane waves:    2576

 maximum and minimum number of plane-waves per node :      2603     2573

 maximum number of plane-waves:      2603
 maximum index in each direction: 
   IXMAX=   13   IYMAX=    6   IZMAX=    6
   IXMIN=  -13   IYMIN=   -7   IZMIN=   -6


 serial   3D FFT for wavefunctions
 parallel 3D FFT for charge:
    minimum data exchange during FFTs selected (reduces bandwidth)


 total amount of memory used by VASP MPI-rank0    41260. kBytes
=======================================================================

   base      :      30000. kBytes
   nonl-proj :       3833. kBytes
   fftplans  :       1258. kBytes
   grid      :       2634. kBytes
   one-center:        311. kBytes
   wavefun   :       3224. kBytes
 
     INWAV:  cpu time    0.0001: real time    0.0000
 Broyden mixing: mesh for mixing (old mesh)
   NGX = 27   NGY = 13   NGZ = 13
  (NGX  = 84   NGY  = 40   NGZ  = 40)
  gives a total of   4563 points

 initial charge density was supplied:
 charge density of overlapping atoms calculated
 number of electron     109.0000000 magnetization 
 keeping initial charge density in first step


--------------------------------------------------------------------------------------------------------


 Maximum index for augmentation-charges          978 (set IRDMAX)


--------------------------------------------------------------------------------------------------------


 First call to EWALD:  gamma=   0.278
 Maximum number of real-space cells 2x 3x 3
 Maximum number of reciprocal cells 4x 2x 2

    FEWALD:  cpu time    0.0024: real time    0.0024


--------------------------------------- Iteration      1(   1)  ---------------------------------------


    POTLOK:  cpu time    0.0283: real time    0.0284
    SETDIJ:  cpu time    0.0159: real time    0.0159
     EDDAV:  cpu time    0.6212: real time    0.6221
       DOS:  cpu time    0.0007: real time    0.0007
    --------------------------------------------
      LOOP:  cpu time    0.6662: real time    0.6672

 eigenvalue-minimisations  :   544
 total energy-change (2. order) : 0.7264874E+03  (-0.2376140E+04)
 number of electron     109.0000000 magnetization 
 augmentation part      109.0000000 magnetization 

 Free energy of the ion-electron system (eV)
  ---------------------------------------------------
  alpha Z        PSCENC =       552.45275294
  Ewald energy   TEWEN  =     -4764.88537427
  -Hartree energ DENC   =     -1156.20786045
  -exchange      EXHF   =         0.00000000
  -V(xc)+E(xc)   XCENC  =      -768.68796555
  PAW double counting   =      5171.05454107    -4356.08836938
  entropy T*S    EENTRO =        -0.08026045
  eigenvalues    EBANDS =      1361.44566981
  atomic energy  EATOM  =      4687.48422623
  Solvation  Ediel_sol  =         0.00000000
  ---------------------------------------------------
  free energy    TOTEN  =       726.48735995 eV

  energy without entropy =      726.56762040  energy(sigma->0) =      726.52749017


--------------------------------------------------------------------------------------------------------




--------------------------------------- Iteration      1(   2)  ---------------------------------------


     EDDAV:  cpu time    0.6759: real time    0.6773
       DOS:  cpu time    0.0008: real time    0.0008
    --------------------------------------------
      LOOP:  cpu time    0.6767: real time    0.6781

 eigenvalue-minimisations  :   544
 total energy-change (2. order) :-0.7313972E+03  (-0.7010936E+03)
 number of electron     109.0000000 magnetization 
 augmentation part      109.0000000 magnetization 

 Free energy of the ion-electron system (eV)
  ---------------------------------------------------
  alpha Z        PSCENC =       552.45275294
  Ewald energy   TEWEN  =     -4764.88537427
  -Hartree energ DENC   =     -1156.20786045
  -exchange      EXHF   =         0.00000000
  -V(xc)+E(xc)   XCENC  =      -768.68796555
  PAW double counting   =      5171.05454107    -4356.08836938
  entropy T*S    EENTRO =        -0.06689230
  eigenvalues    EBANDS =       630.03510484
  atomic energy  EATOM  =      4687.48422623
  Solvation  Ediel_sol  =         0.00000000
  ---------------------------------------------------
  free energy    TOTEN  =        -4.90983686 eV

  energy without entropy =       -4.84294457  energy(sigma->0) =       -4.87639071


--------------------------------------------------------------------------------------------------------




--------------------------------------- Iteration      1(   3)  ---------------------------------------


     EDDAV:  cpu time    1.0360: real time    1.0372
       DOS:  cpu time    0.0009: real time    0.0009
    --------------------------------------------
      LOOP:  cpu time    1.0369: real time    1.0381

 eigenvalue-minimisations  :   912
 total energy-change (2. order) :-0.1309290E+03  (-0.1222255E+03)
 number of electron     109.0000000 magnetization 
 augmentation part      109.0000000 magnetization 

 Free energy of the ion-electron system (eV)
  ---------------------------------------------------
  alpha Z        PSCENC =       552.45275294
  Ewald energy   TEWEN  =     -4764.88537427
  -Hartree energ DENC   =     -1156.20786045
  -exchange      EXHF   =         0.00000000
  -V(xc)+E(xc)   XCENC  =      -768.68796555
  PAW double counting   =      5171.05454107    -4356.08836938
  entropy T*S    EENTRO =        -0.12999708
  eigenvalues    EBANDS =       499.16921419
  atomic energy  EATOM  =      4687.48422623
  Solvation  Ediel_sol  =         0.00000000
  ---------------------------------------------------
  free energy    TOTEN  =      -135.83883229 eV

  energy without entropy =     -135.70883521  energy(sigma->0) =     -135.77383375


--------------------------------------------------------------------------------------------------------




--------------------------------------- Iteration      1(   4)  ---------------------------------------


     EDDAV:  cpu time    0.9553: real time    0.9564
       DOS:  cpu time    0.0009: real time    0.0009
    --------------------------------------------
      LOOP:  cpu time    0.9563: real time    0.9573

 eigenvalue-minimisations  :   896
 total energy-change (2. order) :-0.1538846E+02  (-0.1454602E+02)
 number of electron     109.0000000 magnetization 
 augmentation part      109.0000000 magnetization 

 Free energy of the ion-electron system (eV)
  ---------------------------------------------------
  alpha Z        PSCENC =       552.45275294
  Ewald energy   TEWEN  =     -4764.88537427
  -Hartree energ DENC   =     -1156.20786045
  -exchange      EXHF   =         0.00000000
  -V(xc)+E(xc)   XCENC  =      -768.68796555
  PAW double counting   =      5171.05454107    -4356.08836938
  entropy T*S    EENTRO =        -0.14108262
  eigenvalues    EBANDS =       483.79183529
  atomic energy  EATOM  =      4687.48422623
  Solvation  Ediel_sol  =         0.00000000
  ---------------------------------------------------
  free energy    TOTEN  =      -151.22729674 eV

  energy without entropy =     -151.08621412  energy(sigma->0) =     -151.15675543


--------------------------------------------------------------------------------------------------------




--------------------------------------- Iteration      1(   5)  ---------------------------------------


     EDDAV:  cpu time    1.0006: real time    1.0018
       DOS:  cpu time    0.0009: real time    0.0008
    CHARGE:  cpu time    0.0261: real time    0.0261
    MIXING:  cpu time    0.0014: real time    0.0014
    --------------------------------------------
      LOOP:  cpu time    1.0290: real time    1.0302

 eigenvalue-minimisations  :   912
 total energy-change (2. order) :-0.1054456E+01  (-0.1011038E+01)
 number of electron     108.9999803 magnetization 
 augmentation part       42.2814991 magnetization 

 Broyden mixing:
  rms(total) = 0.57824E+01    rms(broyden)= 0.57809E+01
  rms(prec ) = 0.63516E+01
  weight for this iteration     100.00

 Free energy of the ion-electron system (eV)
  ---------------------------------------------------
  alpha Z        PSCENC =       552.45275294
  Ewald energy   TEWEN  =     -4764.88537427
  -Hartree energ DENC   =     -1156.20786045
  -exchange      EXHF   =         0.00000000
  -V(xc)+E(xc)   XCENC  =      -768.68796555
  PAW double counting   =      5171.05454107    -4356.08836938
  entropy T*S    EENTRO =        -0.14583551
  eigenvalues    EBANDS =       482.74213225
  atomic energy  EATOM  =      4687.48422623
  Solvation  Ediel_sol  =         0.00000000
  ---------------------------------------------------
  free energy    TOTEN  =      -152.28175267 eV

  energy without entropy =     -152.13591715  energy(sigma->0) =     -152.20883491


--------------------------------------------------------------------------------------------------------




--------------------------------------- Iteration      1(   6)  ---------------------------------------


    POTLOK:  cpu time    0.0278: real time    0.0278
    SETDIJ:  cpu time    0.0173: real time    0.0173
     EDDAV:  cpu time    1.1893: real time    1.1907
       DOS:  cpu time    0.0009: real time    0.0009
    CHARGE:  cpu time    0.0235: real time    0.0235
    MIXING:  cpu time    0.0016: real time    0.0016
    --------------------------------------------
      LOOP:  cpu time    1.2603: real time    1.2619

 eigenvalue-minimisations  :  1072
 total energy-change (2. order) :-0.3841299E+02  (-0.4810591E+02)
 number of electron     109.0000072 magnetization 
 augmentation part       48.8781077 magnetization 

 Broyden mixing:
  rms(total) = 0.76100E+01    rms(broyden)= 0.76092E+01
  rms(prec ) = 0.10163E+02
  weight for this iteration     100.00

 eigenvalues of (default mixing * dielectric matrix)
  average eigenvalue GAMMA=   0.3619
  0.3619

 Free energy of the ion-electron system (eV)
  ---------------------------------------------------
  alpha Z        PSCENC =       552.45275294
  Ewald energy   TEWEN  =     -4764.88537427
  -Hartree energ DENC   =     -1049.37544200
  -exchange      EXHF   =         0.00000000
  -V(xc)+E(xc)   XCENC  =      -771.23871615
  PAW double counting   =      7025.88728267    -6208.58280927
  entropy T*S    EENTRO =        -0.10046441
  eigenvalues    EBANDS =       337.66379986
  atomic energy  EATOM  =      4687.48422623
  Solvation  Ediel_sol  =         0.00000000
  ---------------------------------------------------
  free energy    TOTEN  =      -190.69474440 eV

  energy without entropy =     -190.59427999  energy(sigma->0) =     -190.64451220


--------------------------------------------------------------------------------------------------------




--------------------------------------- Iteration      1(   7)  ---------------------------------------


    POTLOK:  cpu time    0.0275: real time    0.0275
    SETDIJ:  cpu time    0.0164: real time    0.0164
     EDDAV:  cpu time    1.1290: real time    1.1311
       DOS:  cpu time    0.0009: real time    0.0009
    CHARGE:  cpu time    0.0229: real time    0.0230
    MIXING:  cpu time    0.0017: real time    0.0017
    --------------------------------------------
      LOOP:  cpu time    1.1984: real time    1.2006

 eigenvalue-minimisations  :  1016
 total energy-change (2. order) : 0.4808333E+02  (-0.4051874E+02)
 number of electron     108.9999835 magnetization 
 augmentation part       45.6616449 magnetization 

 Broyden mixing:
  rms(total) = 0.21571E+01    rms(broyden)= 0.21547E+01
  rms(prec ) = 0.29190E+01
  weight for this iteration     100.00

 eigenvalues of (default mixing * dielectric matrix)
  average eigenvalue GAMMA=   0.7447
  1.2273  0.2621

 Free energy of the ion-electron system (eV)
  ---------------------------------------------------
  alpha Z        PSCENC =       552.45275294
  Ewald energy   TEWEN  =     -4764.88537427
  -Hartree energ DENC   =     -1108.25565148
  -exchange      EXHF   =         0.00000000
  -V(xc)+E(xc)   XCENC  =      -768.07863113
  PAW double counting   =      7520.30174499    -6717.52917778
  entropy T*S    EENTRO =        -0.14498381
  eigenvalues    EBANDS =       456.04367914
  atomic energy  EATOM  =      4687.48422623
  Solvation  Ediel_sol  =         0.00000000
  ---------------------------------------------------
  free energy    TOTEN  =      -142.61141516 eV

  energy without entropy =     -142.46643135  energy(sigma->0) =     -142.53892326


--------------------------------------------------------------------------------------------------------




--------------------------------------- Iteration      1(   8)  ---------------------------------------


    POTLOK:  cpu time    0.0302: real time    0.0302
    SETDIJ:  cpu time    0.0164: real time    0.0165
     EDDAV:  cpu time    1.1719: real time    1.1738
       DOS:  cpu time    0.0010: real time    0.0010
    CHARGE:  cpu time    0.0249: real time    0.0249
    MIXING:  cpu time    0.0016: real time    0.0016
    --------------------------------------------
      LOOP:  cpu time    1.2460: real time    1.2480

 eigenvalue-minimisations  :  1040
 total energy-change (2. order) :-0.2115285E+02  (-0.2166472E+02)
 number of electron     108.9999732 magnetization 
 augmentation part       46.6637181 magnetization 

 Broyden mixing:
  rms(total) = 0.47076E+01    rms(broyden)= 0.47068E+01
  rms(prec ) = 0.68986E+01
  weight for this iteration     100.00

 eigenvalues of (default mixing * dielectric matrix)
  average eigenvalue GAMMA=   0.6414
  1.4458  0.2392  0.2392

 Free energy of the ion-electron system (eV)
  ---------------------------------------------------
  alpha Z        PSCENC =       552.45275294
  Ewald energy   TEWEN  =     -4764.88537427
  -Hartree energ DENC   =     -1109.82149274
  -exchange      EXHF   =         0.00000000
  -V(xc)+E(xc)   XCENC  =      -767.06164724
  PAW double counting   =      8577.40302056    -7783.96717824
  entropy T*S    EENTRO =        -0.11427875
  eigenvalues    EBANDS =       444.74571093
  atomic energy  EATOM  =      4687.48422623
  Solvation  Ediel_sol  =         0.00000000
  ---------------------------------------------------
  free energy    TOTEN  =      -163.76426058 eV

  energy without entropy =     -163.64998183  energy(sigma->0) =     -163.70712120


--------------------------------------------------------------------------------------------------------




--------------------------------------- Iteration      1(   9)  ---------------------------------------


    POTLOK:  cpu time    0.0280: real time    0.0280
    SETDIJ:  cpu time    0.0166: real time    0.0166
     EDDAV:  cpu time    1.0939: real time    1.0952
       DOS:  cpu time    0.0010: real time    0.0010
    CHARGE:  cpu time    0.0235: real time    0.0235
    MIXING:  cpu time    0.0016: real time    0.0016
    --------------------------------------------
      LOOP:  cpu time    1.1645: real time    1.1659

 eigenvalue-minimisations  :   968
 total energy-change (2. order) : 0.2298754E+02  (-0.1283188E+02)
 number of electron     108.9999858 magnetization 
 augmentation part       45.8825110 magnetization 

 Broyden mixing:
  rms(total) = 0.14808E+01    rms(broyden)= 0.14796E+01
  rms(prec ) = 0.19907E+01
  weight for this iteration     100.00

 eigenvalues of (default mixing * dielectric matrix)
  average eigenvalue GAMMA=   0.5709
  1.5154  0.2967  0.2967  0.1749

 Free energy of the ion-electron system (eV)
  ---------------------------------------------------
  alpha Z        PSCENC =       552.45275294
  Ewald energy   TEWEN  =     -4764.88537427
  -Hartree energ DENC   =     -1100.53233032
  -exchange      EXHF   =         0.00000000
  -V(xc)+E(xc)   XCENC  =      -767.35306576
  PAW double counting   =      9060.98563159    -8270.57049409
  entropy T*S    EENTRO =        -0.14545275
  eigenvalues    EBANDS =       461.78738094
  atomic energy  EATOM  =      4687.48422623
  Solvation  Ediel_sol  =         0.00000000
  ---------------------------------------------------
  free energy    TOTEN  =      -140.77672549 eV

  energy without entropy =     -140.63127274  energy(sigma->0) =     -140.70399912


--------------------------------------------------------------------------------------------------------




--------------------------------------- Iteration      1(  10)  ---------------------------------------


    POTLOK:  cpu time    0.0267: real time    0.0267
    SETDIJ:  cpu time    0.0162: real time    0.0162
     EDDAV:  cpu time    1.1505: real time    1.1520
       DOS:  cpu time    0.0009: real time    0.0009
    CHARGE:  cpu time    0.0252: real time    0.0252
    MIXING:  cpu time    0.0022: real time    0.0022
    --------------------------------------------
      LOOP:  cpu time    1.2217: real time    1.2232

 eigenvalue-minimisations  :  1040
 total energy-change (2. order) :-0.1665827E+00  (-0.2263641E+01)
 number of electron     108.9999843 magnetization 
 augmentation part       45.6420456 magnetization 

 Broyden mixing:
  rms(total) = 0.11239E+01    rms(broyden)= 0.11236E+01
  rms(prec ) = 0.13445E+01
  weight for this iteration     100.00

 eigenvalues of (default mixing * dielectric matrix)
  average eigenvalue GAMMA=   0.5381
  1.6423  0.3616  0.3616  0.1626  0.1626

 Free energy of the ion-electron system (eV)
  ---------------------------------------------------
  alpha Z        PSCENC =       552.45275294
  Ewald energy   TEWEN  =     -4764.88537427
  -Hartree energ DENC   =     -1098.59861873
  -exchange      EXHF   =         0.00000000
  -V(xc)+E(xc)   XCENC  =      -767.34769464
  PAW double counting   =      9194.56521749    -8404.45492307
  entropy T*S    EENTRO =        -0.12402030
  eigenvalues    EBANDS =       459.96512618
  atomic energy  EATOM  =      4687.48422623
  Solvation  Ediel_sol  =         0.00000000
  ---------------------------------------------------
  free energy    TOTEN  =      -140.94330817 eV

  energy without entropy =     -140.81928787  energy(sigma->0) =     -140.88129802


--------------------------------------------------------------------------------------------------------




--------------------------------------- Iteration      1(  11)  ---------------------------------------


    POTLOK:  cpu time    0.0286: real time    0.0287
    SETDIJ:  cpu time    0.0163: real time    0.0163
     EDDAV:  cpu time    0.9695: real time    0.9707
       DOS:  cpu time    0.0009: real time    0.0009
    CHARGE:  cpu time    0.0232: real time    0.0232
    MIXING:  cpu time    0.0017: real time    0.0017
    --------------------------------------------
      LOOP:  cpu time    1.0401: real time    1.0414

 eigenvalue-minimisations  :   848
 total energy-change (2. order) : 0.1829651E+00  (-0.1464839E+00)
 number of electron     108.9999835 magnetization 
 augmentation part       45.6044864 magnetization 

 Broyden mixing:
  rms(total) = 0.97809E+00    rms(broyden)= 0.97803E+00
  rms(prec ) = 0.11572E+01
  weight for this iteration     100.00

 eigenvalues of (default mixing * dielectric matrix)
  average eigenvalue GAMMA=   0.6101
  2.0227  0.4973  0.4973  0.2338  0.2338  0.1759

 Free energy of the ion-electron system (eV)
  ---------------------------------------------------
  alpha Z        PSCENC =       552.45275294
  Ewald energy   TEWEN  =     -4764.88537427
  -Hartree energ DENC   =     -1098.58189941
  -exchange      EXHF   =         0.00000000
  -V(xc)+E(xc)   XCENC  =      -767.21039503
  PAW double counting   =      9349.10454569    -8559.52039169
  entropy T*S    EENTRO =        -0.12624198
  eigenvalues    EBANDS =       460.52243442
  atomic energy  EATOM  =      4687.48422623
  Solvation  Ediel_sol  =         0.00000000
  ---------------------------------------------------
  free energy    TOTEN  =      -140.76034310 eV

  energy without entropy =     -140.63410112  energy(sigma->0) =     -140.69722211


--------------------------------------------------------------------------------------------------------




--------------------------------------- Iteration      1(  12)  ---------------------------------------


    POTLOK:  cpu time    0.0253: real time    0.0254
    SETDIJ:  cpu time    0.0162: real time    0.0162
     EDDAV:  cpu time    1.0580: real time    1.0592
       DOS:  cpu time    0.0010: real time    0.0010
    CHARGE:  cpu time    0.0245: real time    0.0245
    MIXING:  cpu time    0.0020: real time    0.0020
    --------------------------------------------
      LOOP:  cpu time    1.1270: real time    1.1283

 eigenvalue-minimisations  :  1016
 total energy-change (2. order) : 0.1219426E+00  (-0.1286447E+00)
 number of electron     108.9999859 magnetization 
 augmentation part       45.9755645 magnetization 

 Broyden mixing:
  rms(total) = 0.75443E+00    rms(broyden)= 0.75431E+00
  rms(prec ) = 0.98315E+00
  weight for this iteration     100.00

 eigenvalues of (default mixing * dielectric matrix)
  average eigenvalue GAMMA=   0.5695
  2.0075  0.5707  0.5707  0.2581  0.2581  0.1734  0.1478

 Free energy of the ion-electron system (eV)
  ---------------------------------------------------
  alpha Z        PSCENC =       552.45275294
  Ewald energy   TEWEN  =     -4764.88537427
  -Hartree energ DENC   =     -1092.20476305
  -exchange      EXHF   =         0.00000000
  -V(xc)+E(xc)   XCENC  =      -767.15953723
  PAW double counting   =      9710.68010983    -8921.31559965
  entropy T*S    EENTRO =        -0.11206893
  eigenvalues    EBANDS =       454.42185362
  atomic energy  EATOM  =      4687.48422623
  Solvation  Ediel_sol  =         0.00000000
  ---------------------------------------------------
  free energy    TOTEN  =      -140.63840052 eV

  energy without entropy =     -140.52633159  energy(sigma->0) =     -140.58236605


--------------------------------------------------------------------------------------------------------




--------------------------------------- Iteration      1(  13)  ---------------------------------------


    POTLOK:  cpu time    0.0258: real time    0.0258
    SETDIJ:  cpu time    0.0163: real time    0.0163
     EDDAV:  cpu time    1.1739: real time    1.1754
       DOS:  cpu time    0.0009: real time    0.0009
    CHARGE:  cpu time    0.0234: real time    0.0234
    MIXING:  cpu time    0.0020: real time    0.0020
    --------------------------------------------
      LOOP:  cpu time    1.2423: real time    1.2439

 eigenvalue-minimisations  :  1056
 total energy-change (2. order) : 0.1288920E+00  (-0.1030333E+00)
 number of electron     108.9999848 magnetization 
 augmentation part       46.0256575 magnetization 

 Broyden mixing:
  rms(total) = 0.58325E+00    rms(broyden)= 0.58318E+00
  rms(prec ) = 0.72801E+00
  weight for this iteration     100.00

 eigenvalues of (default mixing * dielectric matrix)
  average eigenvalue GAMMA=   0.6513
  2.1730  0.9144  0.9144  0.3176  0.3176  0.2024  0.2024  0.1681

 Free energy of the ion-electron system (eV)
  ---------------------------------------------------
  alpha Z        PSCENC =       552.45275294
  Ewald energy   TEWEN  =     -4764.88537427
  -Hartree energ DENC   =     -1092.37106864
  -exchange      EXHF   =         0.00000000
  -V(xc)+E(xc)   XCENC  =      -767.03745195
  PAW double counting   =      9833.50275161    -9044.07838358
  entropy T*S    EENTRO =        -0.11759142
  eigenvalues    EBANDS =       454.54063052
  atomic energy  EATOM  =      4687.48422623
  Solvation  Ediel_sol  =         0.00000000
  ---------------------------------------------------
  free energy    TOTEN  =      -140.50950855 eV

  energy without entropy =     -140.39191714  energy(sigma->0) =     -140.45071284


--------------------------------------------------------------------------------------------------------




--------------------------------------- Iteration      1(  14)  ---------------------------------------


    POTLOK:  cpu time    0.0255: real time    0.0255
    SETDIJ:  cpu time    0.0158: real time    0.0158
     EDDAV:  cpu time    1.1270: real time    1.1287
       DOS:  cpu time    0.0010: real time    0.0010
    CHARGE:  cpu time    0.0242: real time    0.0242
    MIXING:  cpu time    0.0021: real time    0.0021
    --------------------------------------------
      LOOP:  cpu time    1.1956: real time    1.1974

 eigenvalue-minimisations  :  1040
 total energy-change (2. order) : 0.4818140E-01  (-0.1504848E+00)
 number of electron     108.9999839 magnetization 
 augmentation part       46.0978200 magnetization 

 Broyden mixing:
  rms(total) = 0.51069E+00    rms(broyden)= 0.51048E+00
  rms(prec ) = 0.76168E+00
  weight for this iteration     100.00

 eigenvalues of (default mixing * dielectric matrix)
  average eigenvalue GAMMA=   0.6779
  2.4086  1.4231  0.6868  0.5049  0.3280  0.2111  0.2111  0.1690  0.1582

 Free energy of the ion-electron system (eV)
  ---------------------------------------------------
  alpha Z        PSCENC =       552.45275294
  Ewald energy   TEWEN  =     -4764.88537427
  -Hartree energ DENC   =     -1092.41455056
  -exchange      EXHF   =         0.00000000
  -V(xc)+E(xc)   XCENC  =      -766.88086324
  PAW double counting   =     10018.53249966    -9228.41598860
  entropy T*S    EENTRO =        -0.12105438
  eigenvalues    EBANDS =       453.78702507
  atomic energy  EATOM  =      4687.48422623
  Solvation  Ediel_sol  =         0.00000000
  ---------------------------------------------------
  free energy    TOTEN  =      -140.46132716 eV

  energy without entropy =     -140.34027278  energy(sigma->0) =     -140.40079997


--------------------------------------------------------------------------------------------------------




--------------------------------------- Iteration      1(  15)  ---------------------------------------


    POTLOK:  cpu time    0.0277: real time    0.0277
    SETDIJ:  cpu time    0.0167: real time    0.0167
     EDDAV:  cpu time    1.0825: real time    1.0846
       DOS:  cpu time    0.0009: real time    0.0009
    CHARGE:  cpu time    0.0233: real time    0.0233
    MIXING:  cpu time    0.0023: real time    0.0023
    --------------------------------------------
      LOOP:  cpu time    1.1534: real time    1.1556

 eigenvalue-minimisations  :  1016
 total energy-change (2. order) : 0.7706753E-01  (-0.1245277E+00)
 number of electron     108.9999848 magnetization 
 augmentation part       46.2254325 magnetization 

 Broyden mixing:
  rms(total) = 0.35672E+00    rms(broyden)= 0.35648E+00
  rms(prec ) = 0.49421E+00
  weight for this iteration     100.00

 eigenvalues of (default mixing * dielectric matrix)
  average eigenvalue GAMMA=   0.7814
  2.8284  2.2397  0.7251  0.7251  0.3334  0.2369  0.2096  0.2096  0.1704  0.1363

 Free energy of the ion-electron system (eV)
  ---------------------------------------------------
  alpha Z        PSCENC =       552.45275294
  Ewald energy   TEWEN  =     -4764.88537427
  -Hartree energ DENC   =     -1091.16570946
  -exchange      EXHF   =         0.00000000
  -V(xc)+E(xc)   XCENC  =      -766.84553619
  PAW double counting   =     10125.87508527    -9334.96958635
  entropy T*S    EENTRO =        -0.11868296
  eigenvalues    EBANDS =       451.78856516
  atomic energy  EATOM  =      4687.48422623
  Solvation  Ediel_sol  =         0.00000000
  ---------------------------------------------------
  free energy    TOTEN  =      -140.38425963 eV

  energy without entropy =     -140.26557667  energy(sigma->0) =     -140.32491815


--------------------------------------------------------------------------------------------------------




--------------------------------------- Iteration      1(  16)  ---------------------------------------


    POTLOK:  cpu time    0.0259: real time    0.0260
    SETDIJ:  cpu time    0.0165: real time    0.0166
     EDDAV:  cpu time    1.0792: real time    1.0805
       DOS:  cpu time    0.0010: real time    0.0010
    CHARGE:  cpu time    0.0233: real time    0.0233
    MIXING:  cpu time    0.0021: real time    0.0021
    --------------------------------------------
      LOOP:  cpu time    1.1479: real time    1.1494

 eigenvalue-minimisations  :   984
 total energy-change (2. order) :-0.7511683E-02  (-0.6638486E-01)
 number of electron     108.9999851 magnetization 
 augmentation part       46.2914087 magnetization 

 Broyden mixing:
  rms(total) = 0.30703E+00    rms(broyden)= 0.30691E+00
  rms(prec ) = 0.43136E+00
  weight for this iteration     100.00

 eigenvalues of (default mixing * dielectric matrix)
  average eigenvalue GAMMA=   0.7345
  2.5208  2.5208  0.7662  0.7662  0.3420  0.2367  0.2367  0.1943  0.1943  0.1668
  0.1346

 Free energy of the ion-electron system (eV)
  ---------------------------------------------------
  alpha Z        PSCENC =       552.45275294
  Ewald energy   TEWEN  =     -4764.88537427
  -Hartree energ DENC   =     -1091.33156670
  -exchange      EXHF   =         0.00000000
  -V(xc)+E(xc)   XCENC  =      -766.81457708
  PAW double counting   =     10156.78862784    -9364.96411475
  entropy T*S    EENTRO =        -0.11379104
  eigenvalues    EBANDS =       450.99204552
  atomic energy  EATOM  =      4687.48422623
  Solvation  Ediel_sol  =         0.00000000
  ---------------------------------------------------
  free energy    TOTEN  =      -140.39177131 eV

  energy without entropy =     -140.27798027  energy(sigma->0) =     -140.33487579


--------------------------------------------------------------------------------------------------------




--------------------------------------- Iteration      1(  17)  ---------------------------------------


    POTLOK:  cpu time    0.0256: real time    0.0256
    SETDIJ:  cpu time    0.0167: real time    0.0167
     EDDAV:  cpu time    0.9547: real time    0.9558
       DOS:  cpu time    0.0010: real time    0.0010
    CHARGE:  cpu time    0.0235: real time    0.0235
    MIXING:  cpu time    0.0025: real time    0.0025
    --------------------------------------------
      LOOP:  cpu time    1.0239: real time    1.0251

 eigenvalue-minimisations  :   872
 total energy-change (2. order) : 0.6174144E-01  (-0.3192436E-01)
 number of electron     108.9999850 magnetization 
 augmentation part       46.2653728 magnetization 

 Broyden mixing:
  rms(total) = 0.13995E+00    rms(broyden)= 0.13987E+00
  rms(prec ) = 0.17759E+00
  weight for this iteration     100.00

 eigenvalues of (default mixing * dielectric matrix)
  average eigenvalue GAMMA=   0.7575
  2.4885  2.4885  1.1314  0.7442  0.7442  0.3143  0.2669  0.2116  0.2116  0.1864
  0.1678  0.1344

 Free energy of the ion-electron system (eV)
  ---------------------------------------------------
  alpha Z        PSCENC =       552.45275294
  Ewald energy   TEWEN  =     -4764.88537427
  -Hartree energ DENC   =     -1092.25248583
  -exchange      EXHF   =         0.00000000
  -V(xc)+E(xc)   XCENC  =      -766.80884172
  PAW double counting   =     10130.05117312    -9337.98946932
  entropy T*S    EENTRO =        -0.11846306
  eigenvalues    EBANDS =       451.73645205
  atomic energy  EATOM  =      4687.48422623
  Solvation  Ediel_sol  =         0.00000000
  ---------------------------------------------------
  free energy    TOTEN  =      -140.33002987 eV

  energy without entropy =     -140.21156681  energy(sigma->0) =     -140.27079834


--------------------------------------------------------------------------------------------------------




--------------------------------------- Iteration      1(  18)  ---------------------------------------


    POTLOK:  cpu time    0.0265: real time    0.0265
    SETDIJ:  cpu time    0.0161: real time    0.0161
     EDDAV:  cpu time    1.0011: real time    1.0023
       DOS:  cpu time    0.0010: real time    0.0010
    CHARGE:  cpu time    0.0239: real time    0.0240
    MIXING:  cpu time    0.0021: real time    0.0020
    --------------------------------------------
      LOOP:  cpu time    1.0707: real time    1.0719

 eigenvalue-minimisations  :   912
 total energy-change (2. order) :-0.2216551E-01  (-0.2196369E-01)
 number of electron     108.9999855 magnetization 
 augmentation part       46.2364462 magnetization 

 Broyden mixing:
  rms(total) = 0.17894E+00    rms(broyden)= 0.17887E+00
  rms(prec ) = 0.28545E+00
  weight for this iteration     100.00

 eigenvalues of (default mixing * dielectric matrix)
  average eigenvalue GAMMA=   0.7436
  2.5457  2.5457  1.3933  0.7429  0.7429  0.3162  0.2660  0.2057  0.2057  0.2017
  0.2017  0.1655  0.1345

 Free energy of the ion-electron system (eV)
  ---------------------------------------------------
  alpha Z        PSCENC =       552.45275294
  Ewald energy   TEWEN  =     -4764.88537427
  -Hartree energ DENC   =     -1092.79902489
  -exchange      EXHF   =         0.00000000
  -V(xc)+E(xc)   XCENC  =      -766.85240244
  PAW double counting   =     10063.34891356    -9271.51841328
  entropy T*S    EENTRO =        -0.11536552
  eigenvalues    EBANDS =       452.53249230
  atomic energy  EATOM  =      4687.48422623
  Solvation  Ediel_sol  =         0.00000000
  ---------------------------------------------------
  free energy    TOTEN  =      -140.35219538 eV

  energy without entropy =     -140.23682986  energy(sigma->0) =     -140.29451262


--------------------------------------------------------------------------------------------------------




--------------------------------------- Iteration      1(  19)  ---------------------------------------


    POTLOK:  cpu time    0.0260: real time    0.0260
    SETDIJ:  cpu time    0.0160: real time    0.0160
     EDDAV:  cpu time    0.9305: real time    0.9317
       DOS:  cpu time    0.0009: real time    0.0009
    CHARGE:  cpu time    0.0232: real time    0.0232
    MIXING:  cpu time    0.0024: real time    0.0024
    --------------------------------------------
      LOOP:  cpu time    0.9990: real time    1.0002

 eigenvalue-minimisations  :   860
 total energy-change (2. order) : 0.2544768E-01  (-0.1114158E-01)
 number of electron     108.9999851 magnetization 
 augmentation part       46.2176415 magnetization 

 Broyden mixing:
  rms(total) = 0.82702E-01    rms(broyden)= 0.82663E-01
  rms(prec ) = 0.10727E+00
  weight for this iteration     100.00

 eigenvalues of (default mixing * dielectric matrix)
  average eigenvalue GAMMA=   0.7542
  2.7799  2.7799  1.3593  0.7294  0.7294  0.4967  0.3222  0.2696  0.2088  0.2088
  0.2084  0.1344  0.1643  0.1683

 Free energy of the ion-electron system (eV)
  ---------------------------------------------------
  alpha Z        PSCENC =       552.45275294
  Ewald energy   TEWEN  =     -4764.88537427
  -Hartree energ DENC   =     -1093.27119130
  -exchange      EXHF   =         0.00000000
  -V(xc)+E(xc)   XCENC  =      -766.84577884
  PAW double counting   =     10056.40974044    -9264.56083155
  entropy T*S    EENTRO =        -0.11713100
  eigenvalues    EBANDS =       453.00683966
  atomic energy  EATOM  =      4687.48422623
  Solvation  Ediel_sol  =         0.00000000
  ---------------------------------------------------
  free energy    TOTEN  =      -140.32674770 eV

  energy without entropy =     -140.20961670  energy(sigma->0) =     -140.26818220


--------------------------------------------------------------------------------------------------------




--------------------------------------- Iteration      1(  20)  ---------------------------------------


    POTLOK:  cpu time    0.0259: real time    0.0259
    SETDIJ:  cpu time    0.0160: real time    0.0160
     EDDAV:  cpu time    1.0144: real time    1.0156
       DOS:  cpu time    0.0009: real time    0.0009
    CHARGE:  cpu time    0.0233: real time    0.0233
    MIXING:  cpu time    0.0025: real time    0.0025
    --------------------------------------------
      LOOP:  cpu time    1.0830: real time    1.0843

 eigenvalue-minimisations  :   936
 total energy-change (2. order) : 0.1293262E-02  (-0.2491145E-02)
 number of electron     108.9999850 magnetization 
 augmentation part       46.2086350 magnetization 

 Broyden mixing:
  rms(total) = 0.40243E-01    rms(broyden)= 0.40218E-01
  rms(prec ) = 0.55210E-01
  weight for this iteration     100.00

 eigenvalues of (default mixing * dielectric matrix)
  average eigenvalue GAMMA=   0.7718
  3.3825  2.3848  1.5824  0.8832  0.6859  0.6859  0.3317  0.2710  0.2710  0.2077
  0.2077  0.2053  0.1343  0.1655  0.1778

 Free energy of the ion-electron system (eV)
  ---------------------------------------------------
  alpha Z        PSCENC =       552.45275294
  Ewald energy   TEWEN  =     -4764.88537427
  -Hartree energ DENC   =     -1093.55472653
  -exchange      EXHF   =         0.00000000
  -V(xc)+E(xc)   XCENC  =      -766.82327552
  PAW double counting   =     10063.73560119    -9271.73905511
  entropy T*S    EENTRO =        -0.11790849
  eigenvalues    EBANDS =       453.12230512
  atomic energy  EATOM  =      4687.48422623
  Solvation  Ediel_sol  =         0.00000000
  ---------------------------------------------------
  free energy    TOTEN  =      -140.32545444 eV

  energy without entropy =     -140.20754595  energy(sigma->0) =     -140.26650019


--------------------------------------------------------------------------------------------------------




--------------------------------------- Iteration      1(  21)  ---------------------------------------


    POTLOK:  cpu time    0.0275: real time    0.0276
    SETDIJ:  cpu time    0.0164: real time    0.0164
     EDDAV:  cpu time    1.1070: real time    1.1082
       DOS:  cpu time    0.0010: real time    0.0010
    CHARGE:  cpu time    0.0240: real time    0.0240
    MIXING:  cpu time    0.0034: real time    0.0034
    --------------------------------------------
      LOOP:  cpu time    1.1792: real time    1.1805

 eigenvalue-minimisations  :  1064
 total energy-change (2. order) : 0.1228446E-03  (-0.1326588E-02)
 number of electron     108.9999848 magnetization 
 augmentation part       46.2075654 magnetization 

 Broyden mixing:
  rms(total) = 0.35981E-01    rms(broyden)= 0.35947E-01
  rms(prec ) = 0.52524E-01
  weight for this iteration     100.00

 eigenvalues of (default mixing * dielectric matrix)
  average eigenvalue GAMMA=   0.7365
  2.4975  2.4975  1.8002  0.9257  0.7700  0.7700  0.6244  0.3144  0.2747  0.2085
  0.2085  0.2090  0.2090  0.1344  0.1647  0.1754

 Free energy of the ion-electron system (eV)
  ---------------------------------------------------
  alpha Z        PSCENC =       552.45275294
  Ewald energy   TEWEN  =     -4764.88537427
  -Hartree energ DENC   =     -1093.68274772
  -exchange      EXHF   =         0.00000000
  -V(xc)+E(xc)   XCENC  =      -766.80100184
  PAW double counting   =     10073.55953961    -9281.45552394
  entropy T*S    EENTRO =        -0.11798243
  eigenvalues    EBANDS =       453.12077983
  atomic energy  EATOM  =      4687.48422623
  Solvation  Ediel_sol  =         0.00000000
  ---------------------------------------------------
  free energy    TOTEN  =      -140.32533159 eV

  energy without entropy =     -140.20734916  energy(sigma->0) =     -140.26634038


--------------------------------------------------------------------------------------------------------




--------------------------------------- Iteration      1(  22)  ---------------------------------------


    POTLOK:  cpu time    0.0265: real time    0.0265
    SETDIJ:  cpu time    0.0158: real time    0.0159
     EDDAV:  cpu time    1.1393: real time    1.1406
       DOS:  cpu time    0.0010: real time    0.0010
    CHARGE:  cpu time    0.0233: real time    0.0234
    MIXING:  cpu time    0.0028: real time    0.0028
    --------------------------------------------
      LOOP:  cpu time    1.2087: real time    1.2101

 eigenvalue-minimisations  :  1088
 total energy-change (2. order) : 0.3116210E-03  (-0.1063240E-02)
 number of electron     108.9999850 magnetization 
 augmentation part       46.2310316 magnetization 

 Broyden mixing:
  rms(total) = 0.29975E-01    rms(broyden)= 0.29952E-01
  rms(prec ) = 0.40365E-01
  weight for this iteration     100.00

 eigenvalues of (default mixing * dielectric matrix)
  average eigenvalue GAMMA=   0.7275
  2.3921  2.3921  2.1294  0.9069  0.8612  0.8612  0.6762  0.3227  0.2648  0.2648
  0.1344  0.2088  0.2088  0.2115  0.1649  0.1740  0.1945

 Free energy of the ion-electron system (eV)
  ---------------------------------------------------
  alpha Z        PSCENC =       552.45275294
  Ewald energy   TEWEN  =     -4764.88537427
  -Hartree energ DENC   =     -1093.12580370
  -exchange      EXHF   =         0.00000000
  -V(xc)+E(xc)   XCENC  =      -766.81544630
  PAW double counting   =     10080.31853056    -9288.33394548
  entropy T*S    EENTRO =        -0.11712852
  eigenvalues    EBANDS =       452.69716857
  atomic energy  EATOM  =      4687.48422623
  Solvation  Ediel_sol  =         0.00000000
  ---------------------------------------------------
  free energy    TOTEN  =      -140.32501997 eV

  energy without entropy =     -140.20789145  energy(sigma->0) =     -140.26645571


--------------------------------------------------------------------------------------------------------




--------------------------------------- Iteration      1(  23)  ---------------------------------------


    POTLOK:  cpu time    0.0251: real time    0.0252
    SETDIJ:  cpu time    0.0178: real time    0.0178
     EDDAV:  cpu time    1.1028: real time    1.1045
       DOS:  cpu time    0.0010: real time    0.0010
    CHARGE:  cpu time    0.0230: real time    0.0231
    MIXING:  cpu time    0.0033: real time    0.0033
    --------------------------------------------
      LOOP:  cpu time    1.1730: real time    1.1748

 eigenvalue-minimisations  :  1032
 total energy-change (2. order) :-0.5581886E-04  (-0.2754493E-03)
 number of electron     108.9999851 magnetization 
 augmentation part       46.2366734 magnetization 

 Broyden mixing:
  rms(total) = 0.34040E-01    rms(broyden)= 0.34036E-01
  rms(prec ) = 0.47289E-01
  weight for this iteration     100.00

 eigenvalues of (default mixing * dielectric matrix)
  average eigenvalue GAMMA=   0.7389
  2.6480  2.2744  2.2744  1.2432  0.8747  0.8747  0.6105  0.3846  0.2932  0.2932
  0.1344  0.2392  0.2105  0.2105  0.1647  0.1765  0.1970  0.1970

 Free energy of the ion-electron system (eV)
  ---------------------------------------------------
  alpha Z        PSCENC =       552.45275294
  Ewald energy   TEWEN  =     -4764.88537427
  -Hartree energ DENC   =     -1093.00128940
  -exchange      EXHF   =         0.00000000
  -V(xc)+E(xc)   XCENC  =      -766.82028247
  PAW double counting   =     10079.12686408    -9287.18245838
  entropy T*S    EENTRO =        -0.11676285
  eigenvalues    EBANDS =       452.61724834
  atomic energy  EATOM  =      4687.48422623
  Solvation  Ediel_sol  =         0.00000000
  ---------------------------------------------------
  free energy    TOTEN  =      -140.32507579 eV

  energy without entropy =     -140.20831294  energy(sigma->0) =     -140.26669436


--------------------------------------------------------------------------------------------------------




--------------------------------------- Iteration      1(  24)  ---------------------------------------


    POTLOK:  cpu time    0.0256: real time    0.0257
    SETDIJ:  cpu time    0.0164: real time    0.0164
     EDDAV:  cpu time    1.1144: real time    1.1159
       DOS:  cpu time    0.0010: real time    0.0010
    CHARGE:  cpu time    0.0229: real time    0.0229
    MIXING:  cpu time    0.0029: real time    0.0029
    --------------------------------------------
      LOOP:  cpu time    1.1832: real time    1.1848

 eigenvalue-minimisations  :  1048
 total energy-change (2. order) : 0.3130890E-03  (-0.7490878E-04)
 number of electron     108.9999850 magnetization 
 augmentation part       46.2335185 magnetization 

 Broyden mixing:
  rms(total) = 0.21848E-01    rms(broyden)= 0.21846E-01
  rms(prec ) = 0.30301E-01
  weight for this iteration     100.00

 eigenvalues of (default mixing * dielectric matrix)
  average eigenvalue GAMMA=   0.7489
  3.1064  2.1973  2.1973  1.5426  0.8748  0.8748  0.5309  0.5309  0.3073  0.3073
  0.2702  0.1344  0.2086  0.2086  0.2061  0.2061  0.1649  0.1762  0.1838

 Free energy of the ion-electron system (eV)
  ---------------------------------------------------
  alpha Z        PSCENC =       552.45275294
  Ewald energy   TEWEN  =     -4764.88537427
  -Hartree energ DENC   =     -1093.07418783
  -exchange      EXHF   =         0.00000000
  -V(xc)+E(xc)   XCENC  =      -766.81601935
  PAW double counting   =     10078.04243425    -9286.08728815
  entropy T*S    EENTRO =        -0.11700634
  eigenvalues    EBANDS =       452.67569981
  atomic energy  EATOM  =      4687.48422623
  Solvation  Ediel_sol  =         0.00000000
  ---------------------------------------------------
  free energy    TOTEN  =      -140.32476270 eV

  energy without entropy =     -140.20775636  energy(sigma->0) =     -140.26625953


--------------------------------------------------------------------------------------------------------




--------------------------------------- Iteration      1(  25)  ---------------------------------------


    POTLOK:  cpu time    0.0259: real time    0.0260
    SETDIJ:  cpu time    0.0157: real time    0.0157
     EDDAV:  cpu time    1.1727: real time    1.1740
       DOS:  cpu time    0.0009: real time    0.0009
    CHARGE:  cpu time    0.0235: real time    0.0235
    MIXING:  cpu time    0.0031: real time    0.0031
    --------------------------------------------
      LOOP:  cpu time    1.2417: real time    1.2431

 eigenvalue-minimisations  :  1088
 total energy-change (2. order) : 0.2010388E-03  (-0.9366657E-04)
 number of electron     108.9999849 magnetization 
 augmentation part       46.2278424 magnetization 

 Broyden mixing:
  rms(total) = 0.67199E-02    rms(broyden)= 0.67060E-02
  rms(prec ) = 0.86318E-02
  weight for this iteration     100.00

 eigenvalues of (default mixing * dielectric matrix)
  average eigenvalue GAMMA=   0.7599
  2.7284  2.4509  2.4509  1.6273  0.8852  0.8852  0.6745  0.6745  0.5109  0.3076
  0.2797  0.2443  0.1344  0.2091  0.2091  0.2048  0.2048  0.1648  0.1762  0.1762

 Free energy of the ion-electron system (eV)
  ---------------------------------------------------
  alpha Z        PSCENC =       552.45275294
  Ewald energy   TEWEN  =     -4764.88537427
  -Hartree energ DENC   =     -1093.16978793
  -exchange      EXHF   =         0.00000000
  -V(xc)+E(xc)   XCENC  =      -766.81103232
  PAW double counting   =     10076.70940215    -9284.74178733
  entropy T*S    EENTRO =        -0.11729470
  eigenvalues    EBANDS =       452.75433357
  atomic energy  EATOM  =      4687.48422623
  Solvation  Ediel_sol  =         0.00000000
  ---------------------------------------------------
  free energy    TOTEN  =      -140.32456166 eV

  energy without entropy =     -140.20726697  energy(sigma->0) =     -140.26591431


--------------------------------------------------------------------------------------------------------




--------------------------------------- Iteration      1(  26)  ---------------------------------------


    POTLOK:  cpu time    0.0276: real time    0.0277
    SETDIJ:  cpu time    0.0161: real time    0.0161
     EDDAV:  cpu time    0.9766: real time    0.9777
       DOS:  cpu time    0.0010: real time    0.0009
    CHARGE:  cpu time    0.0230: real time    0.0230
    MIXING:  cpu time    0.0033: real time    0.0033
    --------------------------------------------
      LOOP:  cpu time    1.0475: real time    1.0488

 eigenvalue-minimisations  :   880
 total energy-change (2. order) : 0.3252783E-05  (-0.2054828E-04)
 number of electron     108.9999849 magnetization 
 augmentation part       46.2257828 magnetization 

 Broyden mixing:
  rms(total) = 0.44073E-02    rms(broyden)= 0.44052E-02
  rms(prec ) = 0.55066E-02
  weight for this iteration     100.00

 eigenvalues of (default mixing * dielectric matrix)
  average eigenvalue GAMMA=   0.7462
  2.7733  2.7733  2.2623  1.5541  0.8899  0.8899  0.7093  0.7093  0.5084  0.3174
  0.2827  0.2827  0.2493  0.1344  0.2092  0.2092  0.2043  0.2043  0.1748  0.1649
  0.1669

 Free energy of the ion-electron system (eV)
  ---------------------------------------------------
  alpha Z        PSCENC =       552.45275294
  Ewald energy   TEWEN  =     -4764.88537427
  -Hartree energ DENC   =     -1093.18177133
  -exchange      EXHF   =         0.00000000
  -V(xc)+E(xc)   XCENC  =      -766.81162681
  PAW double counting   =     10075.66752614    -9283.71770938
  entropy T*S    EENTRO =        -0.11728440
  eigenvalues    EBANDS =       452.78470246
  atomic energy  EATOM  =      4687.48422623
  Solvation  Ediel_sol  =         0.00000000
  ---------------------------------------------------
  free energy    TOTEN  =      -140.32455841 eV

  energy without entropy =     -140.20727401  energy(sigma->0) =     -140.26591621


--------------------------------------------------------------------------------------------------------




--------------------------------------- Iteration      1(  27)  ---------------------------------------


    POTLOK:  cpu time    0.0250: real time    0.0250
    SETDIJ:  cpu time    0.0162: real time    0.0162
     EDDAV:  cpu time    0.7597: real time    0.7607
       DOS:  cpu time    0.0010: real time    0.0010
    --------------------------------------------
      LOOP:  cpu time    0.8019: real time    0.8029

 eigenvalue-minimisations  :   656
 total energy-change (2. order) : 0.8307185E-05  (-0.6019783E-05)
 number of electron     108.9999849 magnetization 
 augmentation part       46.2257828 magnetization 

 Free energy of the ion-electron system (eV)
  ---------------------------------------------------
  alpha Z        PSCENC =       552.45275294
  Ewald energy   TEWEN  =     -4764.88537427
  -Hartree energ DENC   =     -1093.19691427
  -exchange      EXHF   =         0.00000000
  -V(xc)+E(xc)   XCENC  =      -766.81132448
  PAW double counting   =     10075.06098280    -9283.11591098
  entropy T*S    EENTRO =        -0.11733576
  eigenvalues    EBANDS =       452.80434767
  atomic energy  EATOM  =      4687.48422623
  Solvation  Ediel_sol  =         0.00000000
  ---------------------------------------------------
  free energy    TOTEN  =      -140.32455010 eV

  energy without entropy =     -140.20721435  energy(sigma->0) =     -140.26588222


--------------------------------------------------------------------------------------------------------




 average (electrostatic) potential at core
  the test charge radii are     1.2064  1.0103
  (the norm of the test charge is              1.0000)
       1 -39.0896       2 -38.9974       3 -39.0056       4 -38.8402       5 -38.8403
       6 -39.0310       7 -39.0316       8 -38.9761       9 -38.9764      10 -38.9290
      11 -38.9290      12 -38.9289      13 -38.9290      14 -38.7774      15 -38.7771
      16 -38.7771      17 -38.7774      18 -42.8365      19 -42.9011      20 -42.9011
 
 
 
 E-fermi :   6.3633     XC(G=0): -12.1884     alpha+bet :-15.2488


 k-point     1 :       0.0000    0.0000    0.0000
  band No.  band energies     occupation 
      1      -0.0172      2.00000
      2       1.1227      2.00000
      3       1.7625      2.00000
      4       1.8763      2.00000
      5       1.8977      2.00000
      6       2.1363      2.00000
      7       2.1447      2.00000
      8       2.3349      2.00000
      9       2.4268      2.00000
     10       2.4346      2.00000
     11       2.5190      2.00000
     12       2.7441      2.00000
     13       2.7642      2.00000
     14       2.7992      2.00000
     15       2.9074      2.00000
     16       3.0401      2.00000
     17       3.0950      2.00000
     18       3.2107      2.00000
     19       3.5298      2.00000
     20       3.7256      2.00000
     21       3.7569      2.00000
     22       3.8300      2.00000
     23       4.0028      2.00000
     24       4.0920      2.00000
     25       4.1273      2.00000
     26       4.1406      2.00000
     27       4.1950      2.00000
     28       4.2844      2.00000
     29       4.2874      2.00000
     30       4.2908      2.00000
     31       4.3571      2.00000
     32       4.5337      2.00000
     33       4.7641      2.00000
     34       4.7910      2.00000
     35       4.8320      2.00000
     36       4.9267      2.00000
     37       4.9538      2.00000
     38       4.9963      2.00000
     39       5.0597      2.00000
     40       5.1056      2.00000
     41       5.2120      2.00000
     42       5.3201      2.00000
     43       5.4742      2.00000
     44       5.4797      2.00000
     45       5.5879      2.00000
     46       5.6824      2.00000
     47       5.6916      2.00000
     48       5.8275      2.00000
     49       6.0165      2.00000
     50       6.2909      1.69457
     51       6.3762      0.85610
     52       6.4209      0.41535
     53       6.4372      0.29646
     54       6.6309      0.00015
     55       6.6389      0.00010
     56       6.7485      0.00000
     57       6.9285      0.00000
     58       6.9452      0.00000
     59       7.0160      0.00000
     60       7.1030      0.00000
     61       7.2820      0.00000
     62       7.4070      0.00000
     63       7.5287      0.00000
     64       7.6224      0.00000
     65       7.6406      0.00000
     66       7.8158      0.00000
     67       7.8696      0.00000
     68       7.8813      0.00000

 k-point     2 :       0.0000    0.5000    0.0000
[...]
     18       3.5757      2.00000
     19       3.7229      2.00000
     20       3.7596      2.00000
     21       3.8356      2.00000
     22       3.8689      2.00000
     23       3.8888      2.00000
     24       4.0150      2.00000
     25       4.0281      2.00000
     26       4.1015      2.00000
     27       4.1718      2.00000
     28       4.3088      2.00000
     29       4.3710      2.00000
     30       4.4333      2.00000
     31       4.6099      2.00000
     32       4.6911      2.00000
     33       4.7493      2.00000
     34       4.8528      2.00000
     35       4.8971      2.00000
     36       5.0526      2.00000
     37       5.0888      2.00000
     38       5.1423      2.00000
     39       5.2351      2.00000
     40       5.2433      2.00000
     41       5.4176      2.00000
     42       5.4230      2.00000
     43       5.4848      2.00000
     44       5.4943      2.00000
     45       5.5132      2.00000
     46       5.5561      2.00000
     47       5.5836      2.00000
     48       5.8558      2.00000
     49       5.9873      2.00000
     50       6.1059      2.00000
     51       6.1241      2.00000
     52       6.1519      1.99999
     53       6.2687      1.99401
     54       6.3873      1.71604
     55       6.4739      0.87820
     56       6.6049      0.04488
     57       6.7443      0.00007
     58       6.8344      0.00000
     59       6.8868      0.00000
     60       6.8901      0.00000
     61       6.9507      0.00000
     62       7.1270      0.00000
     63       7.2134      0.00000
     64       7.2449      0.00000
     65       7.2622      0.00000
     66       7.5427      0.00000
     67       7.5452      0.00000
     68       7.5748      0.00000

 k-point     3 :       0.0000    0.0000    0.3333
  band No.  band energies     occupation 
      1      -0.0520      2.00000
      2       1.1495      2.00000
      3       2.4184      2.00000
      4       2.4255      2.00000
      5       2.4635      2.00000
      6       2.7352      2.00000
      7       2.8808      2.00000
      8       2.9454      2.00000
      9       2.9820      2.00000
     10       3.1616      2.00000
     11       3.2267      2.00000
     12       3.2676      2.00000
     13       3.3204      2.00000
     14       3.4425      2.00000
     15       3.5260      2.00000
     16       3.5595      2.00000
     17       3.8312      2.00000
     18       3.8753      2.00000
     19       3.8934      2.00000
     20       3.9192      2.00000
     21       4.0334      2.00000
     22       4.0745      2.00000
     23       4.0872      2.00000
     24       4.1314      2.00000
     25       4.1897      2.00000
     26       4.2396      2.00000
     27       4.3053      2.00000
     28       4.4292      2.00000
     29       4.4691      2.00000
     30       4.6872      2.00000
     31       4.7075      2.00000
     32       4.7334      2.00000
     33       4.8004      2.00000
     34       4.8213      2.00000
     35       4.9186      2.00000
     36       4.9618      2.00000
     37       4.9738      2.00000
     38       5.1384      2.00000
     39       5.1750      2.00000
     40       5.2235      2.00000
     41       5.2531      2.00000
     42       5.2983      2.00000
     43       5.3176      2.00000
     44       5.4168      2.00000
     45       5.4573      2.00000
     46       5.5518      2.00000
     47       5.6157      2.00000
     48       5.7451      2.00000
     49       5.7763      2.00000
     50       5.9014      2.00000
     51       6.0909      2.00000
     52       6.2198      1.99942
     53       6.2636      1.99521
     54       6.2696      1.99378
     55       6.4286      1.37423
     56       6.4922      0.68056
     57       6.6318      0.01704
     58       6.8483      0.00000
     59       6.9202      0.00000
     60       7.0251      0.00000
     61       7.1665      0.00000
     62       7.3267      0.00000
     63       7.3472      0.00000
     64       7.3904      0.00000
     65       7.4036      0.00000
     66       7.5223      0.00000
     67       7.5467      0.00000
     68       7.7492      0.00000

 k-point     4 :       0.0000    0.5000    0.3333
  band No.  band energies     occupation 
      1       1.1088      2.00000
      2       1.6378      2.00000
      3       2.1624      2.00000
      4       2.3752      2.00000
      5       2.5066      2.00000
      6       2.6588      2.00000
      7       2.7215      2.00000
      8       2.8798      2.00000
      9       3.0244      2.00000
     10       3.0548      2.00000
     11       3.1484      2.00000
     12       3.2377      2.00000
     13       3.3307      2.00000
     14       3.3413      2.00000
     15       3.4168      2.00000
     16       3.4855      2.00000
     17       3.5151      2.00000
     18       3.6338      2.00000
     19       3.7761      2.00000
     20       3.7909      2.00000
     21       3.9562      2.00000
     22       3.9678      2.00000
     23       4.0727      2.00000
     24       4.0780      2.00000
     25       4.1919      2.00000
     26       4.3009      2.00000
     27       4.3484      2.00000
     28       4.3508      2.00000
     29       4.3852      2.00000
     30       4.4417      2.00000
     31       4.5906      2.00000
     32       4.6677      2.00000
     33       4.7227      2.00000
     34       4.7557      2.00000
     35       4.7712      2.00000
     36       4.8636      2.00000
     37       4.9152      2.00000
     38       5.1542      2.00000
     39       5.2900      2.00000
     40       5.3239      2.00000
     41       5.3786      2.00000
     42       5.4197      2.00000
     43       5.4294      2.00000
     44       5.5476      2.00000
     45       5.5780      2.00000
     46       5.6689      2.00000
     47       5.8776      2.00000
     48       5.9190      2.00000
     49       6.0005      2.00000
     50       6.0078      2.00000
     51       6.1115      2.00000
     52       6.2973      1.98093
     53       6.3422      1.91264
     54       6.4092      1.55391
     55       6.5027      0.57532
     56       6.5650      0.14927
     57       6.6575      0.00598
     58       6.7084      0.00052
     59       6.8466      0.00000
     60       6.9409      0.00000
     61       7.0331      0.00000
     62       7.0447      0.00000
     63       7.0873      0.00000
     64       7.2434      0.00000
     65       7.4063      0.00000
     66       7.4710      0.00000
     67       7.5362      0.00000
     68       7.5501      0.00000


--------------------------------------------------------------------------------------------------------


 soft charge-density along one line, spin component           1
         0         1         2         3         4         5         6         7         8         9
 total charge-density along one line
 
 pseudopotential strength for first ion, spin component:           1
 -1.125   0.000   0.000   0.000   0.000  -1.650   0.000   0.000
  0.000  -1.186  -0.000  -0.000   0.000   0.000  -1.709  -0.000
  0.000  -0.000  -1.203   0.000   0.012   0.000  -0.000  -1.725
  0.000  -0.000   0.000  -1.203  -0.000   0.000  -0.000   0.000
  0.000   0.000   0.012  -0.000  -1.130   0.000   0.000   0.012
 -1.650   0.000   0.000   0.000   0.000  -2.124   0.000   0.000
  0.000  -1.709  -0.000  -0.000   0.000   0.000  -2.182  -0.000
  0.000  -0.000  -1.725   0.000   0.012   0.000  -0.000  -2.198
  0.000  -0.000   0.000  -1.726  -0.000   0.000  -0.000   0.000
  0.000   0.000   0.012  -0.000  -1.655   0.000   0.000   0.012
  0.000   0.000   0.009   0.000   0.000   0.000   0.000   0.009
 -0.000  -0.000  -0.012  -0.000   0.006  -0.000  -0.000  -0.012
 -0.000  -0.000   0.000   0.009   0.000  -0.000  -0.000   0.000
  0.009  -0.000  -0.000  -0.000  -0.000   0.010  -0.000  -0.000
 -0.000   0.009   0.000  -0.000  -0.000  -0.000   0.010   0.000
  0.000   0.000  -0.000  -0.006  -0.000   0.000   0.000  -0.000
 -0.006   0.000   0.000   0.000   0.000  -0.006   0.000   0.000
  0.000  -0.006  -0.000   0.000   0.000   0.000  -0.006  -0.000
 total augmentation occupancy for first ion, spin component:           1
  0.603   0.000   0.001  -0.000   0.000  -1.054  -0.001  -0.001   0.000  -0.000   0.000   0.000   0.000  -0.006  -0.000   0.000
  0.000   0.398   0.000  -0.000   0.000  -0.001  -0.584   0.000  -0.000  -0.000  -0.000   0.000  -0.000  -0.000   0.001  -0.000
  0.001   0.000   0.555  -0.000  -0.080  -0.001  -0.000  -1.035   0.000   0.084   0.194   0.007  -0.000   0.000  -0.000  -0.000
 -0.000  -0.000  -0.000   0.554  -0.000   0.000  -0.000   0.000  -1.016   0.001  -0.000  -0.000  -0.010   0.000   0.000   0.003
  0.000   0.000  -0.080  -0.000   0.586  -0.000  -0.000   0.080   0.001  -1.001  -0.130  -0.002  -0.000  -0.000   0.000  -0.000
 -1.054  -0.001  -0.001   0.000  -0.000   2.262   0.000   0.001  -0.000   0.000  -0.000   0.000  -0.000   0.083   0.000   0.000
 -0.001  -0.584  -0.000  -0.000  -0.000   0.000   1.541   0.000  -0.000  -0.000   0.000  -0.000   0.000  -0.000   0.091   0.000
 -0.001   0.000  -1.035   0.000   0.080   0.001   0.000   2.336   0.000  -0.157  -0.204  -0.014   0.000  -0.000   0.000   0.000
  0.000  -0.000   0.000  -1.016   0.001  -0.000  -0.000   0.000   2.197  -0.001   0.001   0.000   0.083  -0.000   0.000  -0.006
 -0.000  -0.000   0.084   0.001  -1.001   0.000  -0.000  -0.157  -0.001   2.276   0.145   0.001  -0.000  -0.000  -0.000  -0.000
  0.000  -0.000   0.194  -0.000  -0.130  -0.000   0.000  -0.204   0.001   0.145   2.105   0.042   0.000   0.000  -0.000   0.000
  0.000   0.000   0.007  -0.000  -0.002   0.000  -0.000  -0.014   0.000   0.001   0.042   0.001   0.000   0.000  -0.000   0.000
  0.000  -0.000  -0.000  -0.010  -0.000  -0.000   0.000   0.000   0.083  -0.000   0.000   0.000   0.351   0.000  -0.000   0.010
 -0.006  -0.000   0.000   0.000  -0.000   0.083  -0.000  -0.000  -0.000  -0.000   0.000   0.000   0.000   0.254   0.000  -0.000
 -0.000   0.001  -0.000   0.000   0.000   0.000   0.091   0.000   0.000  -0.000  -0.000  -0.000  -0.000   0.000   0.355   0.000
  0.000  -0.000  -0.000   0.003  -0.000   0.000   0.000   0.000  -0.006  -0.000   0.000   0.000   0.010  -0.000   0.000   0.000
  0.001   0.000  -0.000  -0.000   0.000  -0.006   0.000   0.000   0.000  -0.000   0.000   0.000   0.000   0.002   0.000  -0.000
 -0.000   0.002   0.000  -0.000  -0.000   0.000  -0.006  -0.000   0.000   0.000   0.000  -0.000   0.000   0.000   0.007   0.000


------------------------ aborting loop because EDIFF is reached ----------------------------------------


    CHARGE:  cpu time    0.0220: real time    0.0220
    FORLOC:  cpu time    0.0066: real time    0.0066
    FORNL :  cpu time    0.5642: real time    0.5647
    STRESS:  cpu time    0.5724: real time    0.5730
    FORCOR:  cpu time    0.0289: real time    0.0289
    FORHAR:  cpu time    0.0106: real time    0.0106
    MIXING:  cpu time    0.0013: real time    0.0013
    OFIELD:  cpu time    0.0000: real time    0.0000

  FORCE on cell =-STRESS in cart. coord.  units (eV):
  Direction    XX          YY          ZZ          XY          YZ          ZX
  --------------------------------------------------------------------------------------
  Alpha Z   550.23682   550.23682   550.23682
  Ewald   -1682.43767 -1749.99093 -1641.51661    -0.13053    -0.01165     0.08631
  Hartree   393.39505   247.69828   189.87423    -0.05936    -0.00573     0.06660
  E(xc)    -498.41213  -505.46695  -514.29520    -0.00295    -0.00054     0.00273
  Local      37.42987   256.20160   241.61920     0.16980     0.01953    -0.15539
  n-local  -135.45683  -130.97755  -150.91550    -0.00220    -0.00246     0.01273
  augment   447.35215   450.23895   447.85275     0.00885     0.00149    -0.00938
  Kinetic   887.98000   882.12900   877.27403     0.01413     0.00242    -0.00006
  Fock        0.00000     0.00000     0.00000     0.00000     0.00000     0.00000
  -------------------------------------------------------------------------------------
  Total       0.08727     0.06923     0.12972    -0.00225     0.00305     0.00354
  in kB       0.53751     0.42643     0.79903    -0.01385     0.01881     0.02181
  external pressure =        0.59 kB  Pullay stress =        0.00 kB


 VOLUME and BASIS-vectors are now :
 -----------------------------------------------------------------------------
  energy-cutoff  :      267.88
  volume of cell :      260.12
      direct lattice vectors                 reciprocal lattice vectors
     7.420537110 -0.000544144  0.000807236     0.134761137  0.000008646 -0.000013448
    -0.000328688  5.122839643 -0.000034878     0.000014314  0.195204237  0.000000696
     0.000682819 -0.000024438  6.842579751    -0.000015898  0.000000994  0.146143713

  length of vectors
     7.420537174  5.122839654  6.842579785     0.134761138  0.195204238  0.146143714


 FORCES acting on ions
    electron-ion (+dipol)            ewald-force                    non-local-force                 convergence-correction
 -----------------------------------------------------------------------------------------------
   -.706E-02 -.333E-01 -.280E-01   0.493E-02 0.436E-01 0.293E-01   0.641E-04 -.741E-02 -.477E-02   0.217E-02 -.156E-03 0.336E-03
   0.253E-02 0.861E-01 -.123E+00   0.323E-02 -.721E-01 0.124E+00   0.251E-03 -.139E-01 0.120E-02   -.555E-02 0.329E-03 -.187E-03
   -.224E-02 -.101E+00 0.393E-01   0.369E-02 0.119E+00 -.380E-01   -.544E-03 -.174E-01 -.344E-02   -.919E-03 0.185E-03 0.795E-04
   0.242E+02 -.196E-01 -.226E-02   -.236E+02 0.124E-01 0.634E-02   -.586E+00 0.695E-02 -.348E-02   0.750E-02 -.697E-04 0.220E-03
   -.242E+02 -.340E-01 -.369E-01   0.236E+02 0.323E-01 0.361E-01   0.586E+00 0.166E-02 0.137E-02   -.663E-02 -.584E-04 -.227E-03
   0.185E+02 0.523E-01 -.124E+00   -.179E+02 -.568E-01 0.128E+00   -.633E+00 0.365E-02 -.206E-02   0.158E-01 -.267E-04 -.409E-03
   -.185E+02 0.892E-01 0.758E-01   0.179E+02 -.843E-01 -.899E-01   0.633E+00 -.667E-02 0.129E-01   -.100E-01 0.171E-03 0.183E-03
   0.372E+02 0.760E-01 0.520E-02   -.382E+02 -.778E-01 0.626E-02   0.987E+00 0.211E-02 -.118E-01   0.609E-02 -.861E-04 0.304E-03
   -.372E+02 0.605E-01 0.457E-01   0.382E+02 -.627E-01 -.577E-01   -.988E+00 0.210E-02 0.166E-01   -.830E-02 -.144E-03 -.825E-03
   -.232E+02 -.440E+02 -.827E+02   0.227E+02 0.416E+02 0.837E+02   0.453E+00 0.239E+01 -.101E+01   -.971E-02 0.753E-02 0.894E-02
   0.232E+02 0.441E+02 -.829E+02   -.228E+02 -.418E+02 0.839E+02   -.445E+00 -.238E+01 -.101E+01   0.176E-01 -.254E-02 0.225E-02
   0.233E+02 -.441E+02 0.828E+02   -.228E+02 0.417E+02 -.838E+02   -.449E+00 0.238E+01 0.102E+01   0.175E-01 0.265E-02 -.244E-02
   -.234E+02 0.442E+02 0.830E+02   0.229E+02 -.418E+02 -.840E+02   0.440E+00 -.237E+01 0.101E+01   -.986E-02 -.761E-02 -.870E-02
   0.196E+02 -.458E+02 -.618E+02   -.194E+02 0.453E+02 0.611E+02   -.247E+00 0.475E+00 0.746E+00   0.774E-03 -.153E-03 -.552E-02
   -.198E+02 0.458E+02 -.620E+02   0.196E+02 -.453E+02 0.612E+02   0.238E+00 -.471E+00 0.738E+00   -.103E-01 -.465E-02 -.226E-03
   -.197E+02 -.459E+02 0.618E+02   0.195E+02 0.454E+02 -.611E+02   0.252E+00 0.469E+00 -.742E+00   -.103E-01 0.437E-02 0.288E-03
   0.199E+02 0.458E+02 0.620E+02   -.197E+02 -.454E+02 -.612E+02   -.241E+00 -.467E+00 -.735E+00   0.694E-03 0.119E-03 0.551E-02
   -.569E-03 -.135E+00 -.218E+00   -.164E-01 0.162E+00 0.224E+00   -.216E-03 -.280E-01 -.610E-03   0.155E-01 0.744E-03 -.173E-02
   0.390E+02 -.568E-01 -.229E+00   -.396E+02 0.620E-01 0.217E+00   0.529E+00 -.639E-02 0.159E-01   0.229E-01 0.103E-03 -.156E-02
   -.390E+02 -.875E-01 0.280E+00   0.396E+02 0.819E-01 -.257E+00   -.529E+00 0.184E-02 -.364E-01   -.395E-01 0.622E-03 0.434E-02
 -----------------------------------------------------------------------------------------------
   0.468E-02 0.268E-01 0.548E-02   0.355E-13 -.153E-14 -.281E-13   -.257E-03 -.282E-01 -.511E-02   -.453E-02 0.132E-02 0.633E-03
 
 
 POSITION                                       TOTAL-FORCE (eV/Angst)
 -----------------------------------------------------------------------------------
      0.00104      0.00201      1.71073         0.000115      0.002664     -0.003138
      3.71139      2.56203      5.13349         0.000475      0.000432      0.001644
      3.71112      2.56207      1.71130        -0.000009      0.001236     -0.002093
      1.19985      2.56158      1.71099         0.006468     -0.000287      0.000765
      6.22235      2.56134      1.71219        -0.005940     -0.000153      0.000259
      1.19565      2.56154      5.13391         0.001129     -0.000823      0.000868
      6.22717      2.56071      5.13286        -0.001207     -0.001623     -0.001040
      2.49565      0.00053      1.71140        -0.009480      0.000197     -0.000079
      4.92699      0.00003      1.71356         0.008901     -0.000236      0.003754
      6.26743      1.09483     -0.11690        -0.008987      0.001918     -0.003236
      1.15148      4.02901     -0.11694         0.003227     -0.002697     -0.000163
      1.15303      1.09544      3.54110         0.002102      0.000077      0.002261
      6.27239      4.02850      3.54096         0.003452     -0.000650      0.003021
      3.09046      1.22684     -0.01014         0.000220     -0.001032      0.002178
      4.33556      3.89743     -0.01057         0.006079      0.003351      0.000396
      4.33106      1.22773      3.43401        -0.004766      0.003205     -0.001363
      3.08738      3.89617      3.43431        -0.001711     -0.000077      0.000079
      0.00139      0.00005      5.13342        -0.001608     -0.001213      0.003399
      2.48138      0.00016      5.13411         0.001364     -0.001082      0.001422
      4.94184     -0.00173      5.12975         0.000176     -0.003208     -0.008933
 -----------------------------------------------------------------------------------
    total drift:                               -0.000101     -0.000090      0.001006


--------------------------------------------------------------------------------------------------------



  FREE ENERGIE OF THE ION-ELECTRON SYSTEM (eV)
  ---------------------------------------------------
  free  energy   TOTEN  =      -162.64239950 eV

  energy  without entropy=     -162.53095911  energy(sigma->0) =     -162.58667930
 
 d Force =-0.5128765E-05[-0.453E-05,-0.572E-05]  d Energy = 0.1087070E-05-0.622E-05
 d Force =-0.4746808E-01[-0.475E-01,-0.475E-01]  d Ewald  =-0.2072698E+00 0.160E+00


--------------------------------------------------------------------------------------------------------


    POTLOK:  cpu time    0.0397: real time    0.0398


--------------------------------------------------------------------------------------------------------




--------------------------------------------------------------------------------------------------------


  
 reached required accuracy - stopping structural energy minimisation
     LOOP+:  cpu time    4.9433: real time    4.9484
    4ORBIT:  cpu time    0.0000: real time    0.0000

 total amount of memory used by VASP MPI-rank0    41260. kBytes
=======================================================================

   base      :      30000. kBytes
   nonl-proj :       3833. kBytes
   fftplans  :       1258. kBytes
   grid      :       2634. kBytes
   one-center:        311. kBytes
   wavefun   :       3224. kBytes
 
  
  
 General timing and accounting informations for this job:
 ========================================================
  
                  Total CPU time used (sec):      894.790
                            User time (sec):      886.999
                          System time (sec):        7.791
                         Elapsed time (sec):      896.300
  
                   Maximum memory used (kb):      195356.
                   Average memory used (kb):           0.
  
                          Minor page faults:       904939
                          Major page faults:            0
                 Voluntary context switches:          774
