<?xml version="1.0" encoding="ISO-8859-1"?>
<modeling>
 <generator>
  <i name="program" type="string">vasp </i>
  <i name="version" type="string">5.4.4.18Apr17-6-g9f103f2a35  </i>
  <i name="subversion" type="string">(build Jul 11 2019 11:52:51) complex            parallel </i>
  <i name="platform" type="string">LinuxIFC </i>
  <i name="date" type="string">2023 11 29 </i>
  <i name="time" type="string">16:54:11 </i>
 </generator>
 <incar>
  <i type="int" name="ISTART">     0</i>
  <i type="string" name="PREC">normal</i>
  <i type="int" name="IBRION">     2</i>
  <i name="EDIFF">      0.00001000</i>
  <i name="EDIFFG">     -0.01000000</i>
  <i type="int" name="NSW">   500</i>
  <i type="int" name="ISIF">     3</i>
  <i name="POTIM">      0.50000000</i>
  <i type="int" name="ISMEAR">     0</i>
  <i name="SIGMA">      0.10000000</i>
  <i name="PSTRESS">      0.00000000</i>
  <i type="logical" name="LWAVE"> F  </i>
  <i type="logical" name="LCHARG"> F  </i>
  <v type="int" name="KPOINT_BSE">    -1     0     0     0</v>
 </incar>
 <structure name="primitive_cell" >
  <crystal>
   <varray name="basis" >
    <v>      10.26482500       0.00000000       0.00000000 </v>
    <v>       0.00000000       5.09541900       0.00000000 </v>
    <v>       0.00000000       0.00000000       4.95323600 </v>
   </varray>
   <i name="volume">    259.07199687 </i>
   <varray name="rec_basis" >
    <v>       0.09742007       0.00000000       0.00000000 </v>
    <v>       0.00000000       0.19625471       0.00000000 </v>
    <v>       0.00000000       0.00000000       0.20188822 </v>
   </varray>
  </crystal>
  <varray name="positions" >
   <v>       0.00012000       0.00012000       0.25012000 </v>
   <v>       0.14172000       0.19172000      -0.49988000 </v>
   <v>       0.14172000      -0.19150000       0.00010000 </v>
   <v>      -0.14150000      -0.19150000      -0.49988000 </v>
   <v>      -0.14150000       0.19172000       0.00010000 </v>
   <v>       0.00012000       0.00012000      -0.24988000 </v>
   <v>       0.28332000       0.00012000       0.25012000 </v>
   <v>      -0.28310000       0.00010000       0.25012000 </v>
   <v>       0.21692000      -0.49988000       0.25012000 </v>
   <v>      -0.21670000      -0.49990000       0.25012000 </v>
   <v>       0.28330000       0.00010000      -0.24988000 </v>
   <v>      -0.28308000       0.00012000      -0.24988000 </v>
   <v>       0.35850000       0.30850000       0.00012000 </v>
   <v>       0.35850000      -0.30828000      -0.49990000 </v>
   <v>      -0.35828000       0.30850000      -0.49990000 </v>
   <v>      -0.35828000      -0.30828000       0.00012000 </v>
   <v>       0.21690000      -0.49990000      -0.24988000 </v>
   <v>      -0.21668000      -0.49988000      -0.24988000 </v>
   <v>      -0.49988000      -0.49988000       0.25012000 </v>
   <v>      -0.49988000      -0.49988000      -0.24988000 </v>
  </varray>
 </structure>
 <varray name="primitive_index" >
  <v type="int" >        1 </v>
  <v type="int" >       12 </v>
  <v type="int" >       11 </v>
  <v type="int" >       13 </v>
  <v type="int" >       10 </v>
  <v type="int" >       18 </v>
  <v type="int" >        8 </v>
  <v type="int" >        9 </v>
  <v type="int" >        4 </v>
  <v type="int" >        5 </v>
  <v type="int" >       19 </v>
  <v type="int" >       20 </v>
  <v type="int" >       14 </v>
  <v type="int" >       17 </v>
  <v type="int" >       16 </v>
  <v type="int" >       15 </v>
  <v type="int" >        6 </v>
  <v type="int" >        7 </v>
  <v type="int" >        3 </v>
  <v type="int" >        2 </v>
 </varray>
 <kpoints>
  <generation param="Gamma">
   <v type="int" name="divisions">       1        2        3 </v>
   <v name="usershift">      0.00000000       0.00000000       0.00000000 </v>
   <v name="genvec1">      1.00000000       0.00000000       0.00000000 </v>
   <v name="genvec2">      0.00000000       0.50000000       0.00000000 </v>
   <v name="genvec3">      0.00000000       0.00000000       0.33333333 </v>
   <v name="shift">      0.00000000       0.00000000       0.00000000 </v>
  </generation>
  <varray name="kpointlist" >
   <v>       0.00000000       0.00000000       0.00000000 </v>
   <v>       0.00000000       0.50000000       0.00000000 </v>
   <v>       0.00000000       0.00000000       0.33333333 </v>
   <v>       0.00000000       0.50000000       0.33333333 </v>
  </varray>
  <varray name="weights" >
   <v>       0.16666667 </v>
   <v>       0.16666667 </v>
   <v>       0.33333333 </v>
   <v>       0.33333333 </v>
  </varray>
 </kpoints>
 <parameters>
  <separator name="general" >
   <i type="string" name="SYSTEM">unknown system</i>
   <i type="logical" name="LCOMPAT"> F  </i>
  </separator>
  <separator name="electronic" >
   <i type="string" name="PREC">normal</i>
   <i name="ENMAX">    267.88200000</i>
   <i name="ENAUG">    511.36800000</i>
   <i name="EDIFF">      0.00001000</i>
   <i type="int" name="IALGO">    38</i>
   <i type="int" name="IWAVPR">    11</i>
   <i type="int" name="NBANDS">    68</i>
   <i name="NELECT">    109.00000000</i>
   <i type="int" name="TURBO">     0</i>
   <i type="int" name="IRESTART">     0</i>
   <i type="int" name="NREBOOT">     0</i>
   <i type="int" name="NMIN">     0</i>
   <i name="EREF">      0.00000000</i>
   <separator name="electronic smearing" >
    <i type="int" name="ISMEAR">     0</i>
    <i name="SIGMA">      0.10000000</i>
    <i name="KSPACING">      0.50000000</i>
    <i type="logical" name="KGAMMA"> T  </i>
   </separator>
   <separator name="electronic projectors" >
    <i type="logical" name="LREAL"> F  </i>
    <v name="ROPT">      0.00000000      0.00000000</v>
    <i type="int" name="LMAXPAW">  -100</i>
    <i type="int" name="LMAXMIX">     2</i>
    <i type="logical" name="NLSPLINE"> F  </i>
   </separator>
   <separator name="electronic startup" >
    <i type="int" name="ISTART">     0</i>
    <i type="int" name="ICHARG">     2</i>
    <i type="int" name="INIWAV">     1</i>
   </separator>
   <separator name="electronic spin" >
    <i type="int" name="ISPIN">     1</i>
    <i type="logical" name="LNONCOLLINEAR"> F  </i>
    <v name="MAGMOM">      1.00000000      1.00000000      1.00000000      1.00000000      1.00000000      1.00000000      1.00000000      1.00000000      1.00000000      1.00000000      1.00000000      1.00000000      1.00000000      1.00000000      1.00000000      1.00000000      1.00000000      1.00000000      1.00000000      1.00000000
</v>
    <i name="NUPDOWN">     -1.00000000</i>
    <i type="logical" name="LSORBIT"> F  </i>
    <v name="SAXIS">      0.00000000      0.00000000      1.00000000</v>
    <i type="logical" name="LSPIRAL"> F  </i>
    <v name="QSPIRAL">      0.00000000      0.00000000      0.00000000</v>
    <i type="logical" name="LZEROZ"> F  </i>
   </separator>
   <separator name="electronic exchange-correlation" >
    <i type="logical" name="LASPH"> F  </i>
    <i type="logical" name="LMETAGGA"> F  </i>
   </separator>
   <separator name="electronic convergence" >
    <i type="int" name="NELM">    60</i>
    <i type="int" name="NELMDL">    -5</i>
    <i type="int" name="NELMIN">     2</i>
    <i name="ENINI">    267.88200000</i>
    <separator name="electronic convergence detail" >
     <i type="logical" name="LDIAG"> T  </i>
     <i type="logical" name="LSUBROT"> F  </i>
     <i name="WEIMIN">      0.00100000</i>
     <i name="EBREAK">      0.00000004</i>
     <i name="DEPER">      0.30000000</i>
     <i type="int" name="NRMM">     4</i>
     <i name="TIME">      0.40000000</i>
    </separator>
   </separator>
   <separator name="electronic mixer" >
    <i name="AMIX">      0.40000000</i>
    <i name="BMIX">      1.00000000</i>
    <i name="AMIN">      0.10000000</i>
    <i name="AMIX_MAG">      1.60000000</i>
    <i name="BMIX_MAG">      1.00000000</i>
    <separator name="electronic mixer details" >
     <i type="int" name="IMIX">     4</i>
     <i type="logical" name="MIXFIRST"> F  </i>
     <i type="int" name="MAXMIX">   -45</i>
     <i name="WC">    100.00000000</i>
     <i type="int" name="INIMIX">     1</i>
     <i type="int" name="MIXPRE">     1</i>
     <i type="int" name="MREMOVE">     5</i>
    </separator>
   </separator>
   <separator name="electronic dipolcorrection" >
    <i type="logical" name="LDIPOL"> F  </i>
    <i type="logical" name="LMONO"> F  </i>
    <i type="int" name="IDIPOL">     0</i>
    <i name="EPSILON">      1.00000000</i>
    <v name="DIPOL">   -100.00000000   -100.00000000   -100.00000000</v>
    <i name="EFIELD">      0.00000000</i>
   </separator>
  </separator>
  <separator name="grids" >
   <i type="int" name="NGX">    42</i>
   <i type="int" name="NGY">    20</i>
   <i type="int" name="NGZ">    20</i>
   <i type="int" name="NGXF">    84</i>
   <i type="int" name="NGYF">    40</i>
   <i type="int" name="NGZF">    40</i>
   <i type="logical" name="ADDGRID"> F  </i>
  </separator>
  <separator name="ionic" >
   <i type="int" name="NSW">   500</i>
   <i type="int" name="IBRION">     2</i>
   <i type="int" name="MDALGO">     0</i>
   <i type="int" name="ISIF">     3</i>
   <i name="PSTRESS">      0.00000000</i>
   <i name="EDIFFG">     -0.01000000</i>
   <i type="int" name="NFREE">     1</i>
   <i name="POTIM">      0.50000000</i>
   <i name="SMASS">     -3.00000000</i>
   <i name="SCALEE">      1.00000000</i>
  </separator>
  <separator name="ionic md" >
   <i name="TEBEG">      0.00010000</i>
   <i name="TEEND">      0.00010000</i>
   <i type="int" name="NBLOCK">     1</i>
   <i type="int" name="KBLOCK">   500</i>
   <i type="int" name="NPACO">   256</i>
   <i name="APACO">     16.00000000</i>
  </separator>
  <separator name="symmetry" >
   <i type="int" name="ISYM">     2</i>
   <i name="SYMPREC">      0.00001000</i>
  </separator>
  <separator name="dos" >
   <i type="int" name="LORBIT">     0</i>
   <v name="RWIGS">     -1.00000000     -1.00000000</v>
   <i type="int" name="NEDOS">   301</i>
   <i name="EMIN">     10.00000000</i>
   <i name="EMAX">    -10.00000000</i>
   <i name="EFERMI">      0.00000000</i>
  </separator>
  <separator name="writing" >
   <i type="int" name="NWRITE">     2</i>
   <i type="logical" name="LWAVE"> F  </i>
   <i type="logical" name="LDOWNSAMPLE"> F  </i>
   <i type="logical" name="LCHARG"> F  </i>
   <i type="logical" name="LPARD"> F  </i>
   <i type="logical" name="LVTOT"> F  </i>
   <i type="logical" name="LVHAR"> F  </i>
   <i type="logical" name="LELF"> F  </i>
   <i type="logical" name="LOPTICS"> F  </i>
   <v name="STM">      0.00000000      0.00000000      0.00000000      0.00000000      0.00000000      0.00000000      0.00000000</v>
  </separator>
  <separator name="performance" >
   <i type="int" name="NPAR">     4</i>
   <i type="int" name="NSIM">     4</i>
   <i type="int" name="NBLK">    -1</i>
   <i type="logical" name="LPLANE"> T  </i>
   <i type="logical" name="LSCALAPACK"> T  </i>
   <i type="logical" name="LSCAAWARE"> F  </i>
   <i type="logical" name="LSCALU"> F  </i>
   <i type="logical" name="LASYNC"> F  </i>
   <i type="logical" name="LORBITALREAL"> F  </i>
  </separator>
  <separator name="miscellaneous" >
   <i type="int" name="IDIOT">     3</i>
   <i type="int" name="ISPECIAL">     0</i>
   <i type="logical" name="LMUSIC"> F  </i>
   <v name="POMASS">     50.94100000     55.84700000</v>
   <v name="DARWINR">      0.00000000      0.00000000</v>
   <v name="DARWINV">      1.00000000      1.00000000</v>
   <i type="logical" name="LCORR"> T  </i>
  </separator>
  <i type="logical" name="GGA_COMPAT"> T  </i>
  <i type="logical" name="LBERRY"> F  </i>
  <i type="int" name="ICORELEVEL">     0</i>
  <i type="logical" name="LDAU"> F  </i>
  <i type="int" name="I_CONSTRAINED_M">     0</i>
  <separator name="electronic exchange-correlation" >
   <i type="string" name="GGA">--</i>
   <i type="int" name="VOSKOWN">     0</i>
   <i type="logical" name="LHFCALC"> F  </i>
   <i type="string" name="PRECFOCK"></i>
   <i type="logical" name="LSYMGRAD"> F  </i>
   <i type="logical" name="LHFONE"> F  </i>
   <i type="logical" name="LRHFCALC"> F  </i>
   <i type="logical" name="LTHOMAS"> F  </i>
   <i type="logical" name="LMODELHF"> F  </i>
   <i name="ENCUT4O">     -1.00000000</i>
   <i type="int" name="EXXOEP">     0</i>
   <i type="int" name="FOURORBIT">     0</i>
   <i name="AEXX">      0.00000000</i>
   <i name="HFALPHA">      0.00000000</i>
   <i name="MCALPHA">      0.00000000</i>
   <i name="ALDAX">      1.00000000</i>
   <i name="AGGAX">      1.00000000</i>
   <i name="ALDAC">      1.00000000</i>
   <i name="AGGAC">      1.00000000</i>
   <i type="int" name="NKREDX">     1</i>
   <i type="int" name="NKREDY">     1</i>
   <i type="int" name="NKREDZ">     1</i>
   <i type="logical" name="SHIFTRED"> F  </i>
   <i type="logical" name="ODDONLY"> F  </i>
   <i type="logical" name="EVENONLY"> F  </i>
   <i type="int" name="LMAXFOCK">     0</i>
   <i type="int" name="NMAXFOCKAE">     0</i>
   <i type="logical" name="LFOCKAEDFT"> F  </i>
   <i name="HFSCREEN">      0.00000000</i>
   <i name="HFSCREENC">      0.00000000</i>
   <i type="int" name="NBANDSGWLOW">     0</i>
  </separator>
  <separator name="vdW DFT" >
   <i type="logical" name="LUSE_VDW"> F  </i>
   <i name="Zab_VDW">     -0.84910000</i>
   <i name="PARAM1">      0.12340000</i>
   <i name="PARAM2">      1.00000000</i>
   <i name="PARAM3">      0.00000000</i>
  </separator>
  <separator name="model GW" >
   <i type="int" name="MODEL_GW">     0</i>
   <i name="MODEL_EPS0">      7.77215991</i>
   <i name="MODEL_ALPHA">      1.00000000</i>
  </separator>
  <separator name="linear response parameters" >
   <i type="logical" name="LEPSILON"> F  </i>
   <i type="logical" name="LRPA"> F  </i>
   <i type="logical" name="LNABLA"> F  </i>
   <i type="logical" name="LVEL"> F  </i>
   <i type="int" name="KINTER">     0</i>
   <i name="CSHIFT">      0.10000000</i>
   <i name="OMEGAMAX">     -1.00000000</i>
   <i name="DEG_THRESHOLD">      0.00200000</i>
   <i name="RTIME">     -0.10000000</i>
   <i name="WPLASMAI">      0.00000000</i>
   <v name="DFIELD">      0.00000000      0.00000000      0.00000000</v>
   <v name="WPLASMA">      0.00000000      0.00000000      0.00000000      0.00000000      0.00000000      0.00000000      0.00000000      0.00000000      0.00000000</v>
  </separator>
  <separator name="orbital magnetization" >
   <i type="logical" name="NUCIND"> F  </i>
   <v name="MAGPOS">      0.00000000      0.00000000      0.00000000</v>
   <i type="logical" name="LNICSALL"> T  </i>
   <i type="logical" name="ORBITALMAG"> F  </i>
   <i type="logical" name="LMAGBLOCH"> F  </i>
   <i type="logical" name="LCHIMAG"> F  </i>
   <i type="logical" name="LGAUGE"> T  </i>
   <i type="int" name="MAGATOM">     0</i>
   <v name="MAGDIPOL">      0.00000000      0.00000000      0.00000000</v>
   <v name="AVECCONST">      0.00000000      0.00000000      0.00000000</v>
  </separator>
  <separator name="response functions" >
   <i type="logical" name="LADDER"> F  </i>
   <i type="logical" name="LRPAFORCE"> F  </i>
   <i type="logical" name="LFXC"> F  </i>
   <i type="logical" name="LHARTREE"> T  </i>
   <i type="int" name="IBSE">     0</i>
   <v type="int" name="KPOINT">    -1     0     0     0</v>
   <i type="logical" name="LTCTE"> F  </i>
   <i type="logical" name="LTETE"> F  </i>
   <i type="logical" name="LTRIPLET"> F  </i>
   <i type="logical" name="LFXCEPS"> F  </i>
   <i type="logical" name="LFXHEG"> F  </i>
   <i type="int" name="NATURALO">     2</i>
   <i type="logical" name="L2ORDER"> F  </i>
   <i type="logical" name="LMP2LT"> F  </i>
   <i type="logical" name="LUSEW"> F  </i>
   <i name="ENCUTGW">     -2.00000000</i>
   <i name="ENCUTGWSOFT">     -2.00000000</i>
   <i name="ENCUTLF">     -1.00000000</i>
   <i type="int" name="LMAXMP2">    -1</i>
   <i name="SCISSOR">      0.00000000</i>
   <i type="int" name="NOMEGA">     0</i>
   <i type="int" name="NOMEGAR">     0</i>
   <i type="int" name="NBANDSGW">    -1</i>
   <i type="int" name="NBANDSO">    -1</i>
   <i type="int" name="NBANDSV">    -1</i>
   <i type="int" name="NELM">     1</i>
   <i type="int" name="NELMHF">     1</i>
   <i type="int" name="DIM">     3</i>
   <i type="int" name="ANTIRES">     0</i>
   <i name="OMEGAMAX">    -30.00000000</i>
   <i name="OMEGAMIN">    -30.00000000</i>
   <i name="OMEGATL">   -200.00000000</i>
   <i type="int" name="OMEGAGRID">   140</i>
   <i name="CSHIFT">     -0.10000000</i>
   <i type="logical" name="SELFENERGY"> F  </i>
   <i type="logical" name="LSPECTRAL"> F  </i>
   <i type="logical" name="LSPECTRALGW"> F  </i>
   <i type="logical" name="LSINGLES"> F  </i>
   <i type="logical" name="LFERMIGW"> F  </i>
   <i type="logical" name="ODDONLYGW"> F  </i>
   <i type="logical" name="EVENONLYGW"> F  </i>
   <i type="int" name="NKREDLFX">     1</i>
   <i type="int" name="NKREDLFY">     1</i>
   <i type="int" name="NKREDLFZ">     1</i>
   <i type="int" name="MAXMEM">  2800</i>
   <i type="int" name="TELESCOPE">     0</i>
   <i type="int" name="TAUPAR">     1</i>
   <i type="int" name="OMEGAPAR">    -1</i>
   <i name="LAMBDA">      1.00000000</i>
  </separator>
  <separator name="External order field" >
   <i name="OFIELD_KAPPA">      0.00000000</i>
   <v name="OFIELD_K">      0.00000000      0.00000000      0.00000000</v>
   <i name="OFIELD_Q6_NEAR">      0.00000000</i>
   <i name="OFIELD_Q6_FAR">      0.00000000</i>
   <i name="OFIELD_A">      0.00000000</i>
  </separator>
 </parameters>
 <atominfo>
  <atoms>      20 </atoms>
  <types>       2 </types>
  <array name="atoms" >
   <dimension dim="1">ion</dimension>
   <field type="string">element</field>
   <field type="int">atomtype</field>
   <set>
    <rc><c>V </c><c>   1</c></rc>
    <rc><c>V </c><c>   1</c></rc>
    <rc><c>V </c><c>   1</c></rc>
    <rc><c>V </c><c>   1</c></rc>
    <rc><c>V </c><c>   1</c></rc>
    <rc><c>V </c><c>   1</c></rc>
    <rc><c>V </c><c>   1</c></rc>
    <rc><c>V </c><c>   1</c></rc>
    <rc><c>V </c><c>   1</c></rc>
    <rc><c>V </c><c>   1</c></rc>
    <rc><c>V </c><c>   1</c></rc>
    <rc><c>V </c><c>   1</c></rc>
    <rc><c>V </c><c>   1</c></rc>
    <rc><c>V </c><c>   1</c></rc>
    <rc><c>V </c><c>   1</c></rc>
    <rc><c>V </c><c>   1</c></rc>
    <rc><c>V </c><c>   1</c></rc>
    <rc><c>Fe</c><c>   2</c></rc>
    <rc><c>Fe</c><c>   2</c></rc>
    <rc><c>Fe</c><c>   2</c></rc>
   </set>
  </array>
  <array name="atomtypes" >
   <dimension dim="1">type</dimension>
   <field type="int">atomspertype</field>
   <field type="string">element</field>
   <field>mass</field>
   <field>valence</field>
   <field type="string">pseudopotential</field>
   <set>
    <rc><c>  17</c><c>V </c><c>     50.94100000</c><c>      5.00000000</c><c>  PAW_PBE V 08Apr2002                   </c></rc>
    <rc><c>   3</c><c>Fe</c><c>     55.84700000</c><c>      8.00000000</c><c>  PAW_PBE Fe 06Sep2000                  </c></rc>
   </set>
  </array>
 </atominfo>
 <structure name="initialpos" >
  <crystal>
   <varray name="basis" >
    <v>      10.26482500       0.00000000       0.00000000 </v>
    <v>       0.00000000       5.09541900       0.00000000 </v>
    <v>       0.00000000       0.00000000       4.95323600 </v>
   </varray>
   <i name="volume">    259.07199687 </i>
   <varray name="rec_basis" >
    <v>       0.09742007       0.00000000       0.00000000 </v>
    <v>       0.00000000       0.19625471       0.00000000 </v>
    <v>       0.00000000       0.00000000       0.20188822 </v>
   </varray>
  </crystal>
  <varray name="positions" >
   <v>       0.00012000       0.00012000       0.25012000 </v>
   <v>       0.50012000       0.50012000       0.75012000 </v>
   <v>       0.50012000       0.50012000       0.25012000 </v>
   <v>       0.21692000       0.50012000       0.25012000 </v>
   <v>       0.78330000       0.50010000       0.25012000 </v>
   <v>       0.21690000       0.50010000       0.75012000 </v>
   <v>       0.78332000       0.50012000       0.75012000 </v>
   <v>       0.28332000       0.00012000       0.25012000 </v>
   <v>       0.71690000       0.00010000       0.25012000 </v>
   <v>       0.85850000       0.19172000       0.00010000 </v>
   <v>       0.14172000       0.80850000       0.00010000 </v>
   <v>       0.14172000       0.19172000       0.50012000 </v>
   <v>       0.85850000       0.80850000       0.50012000 </v>
   <v>       0.35850000       0.30850000       0.00012000 </v>
   <v>       0.64172000       0.69172000       0.00012000 </v>
   <v>       0.64172000       0.30850000       0.50010000 </v>
   <v>       0.35850000       0.69172000       0.50010000 </v>
   <v>       0.00012000       0.00012000       0.75012000 </v>
   <v>       0.28330000       0.00010000       0.75012000 </v>
   <v>       0.71692000       0.00012000       0.75012000 </v>
  </varray>
 </structure>
 <calculation>
  <scstep>
   <time name="dav">    0.62    0.62</time>
   <time name="total">    0.67    0.67</time>
   <energy>
    <i name="alphaZ">    552.45275294 </i>
    <i name="ewald">  -4764.88537427 </i>
    <i name="hartreedc">  -1156.20786045 </i>
    <i name="XCdc">   -768.68796555 </i>
    <i name="pawpsdc">   5171.05454107 </i>
    <i name="pawaedc">  -4356.08836938 </i>
    <i name="eentropy">     -0.08026045 </i>
    <i name="bandstr">   1361.44566981 </i>
    <i name="atom">   4687.48422623 </i>
    <i name="e_fr_energy">    726.48735995 </i>
    <i name="e_wo_entrp">    726.56762040 </i>
    <i name="e_0_energy">    726.52749017 </i>
   </energy>
  </scstep>
  <scstep>
   <time name="dav">    0.68    0.68</time>
   <time name="total">    0.68    0.68</time>
   <energy>
    <i name="e_fr_energy">     -4.90983686 </i>
    <i name="e_wo_entrp">     -4.84294457 </i>
    <i name="e_0_energy">     -4.87639071 </i>
   </energy>
  </scstep>
  <scstep>
   <time name="dav">    1.04    1.04</time>
   <time name="total">    1.04    1.04</time>
   <energy>
    <i name="e_fr_energy">   -135.83883229 </i>
    <i name="e_wo_entrp">   -135.70883521 </i>
    <i name="e_0_energy">   -135.77383375 </i>
   </energy>
  </scstep>
  <scstep>
   <time name="dav">    0.96    0.96</time>
   <time name="total">    0.96    0.96</time>
   <energy>
    <i name="e_fr_energy">   -151.22729674 </i>
    <i name="e_wo_entrp">   -151.08621412 </i>
    <i name="e_0_energy">   -151.15675543 </i>
   </energy>
  </scstep>
  <scstep>
   <time name="dav">    1.00    1.00</time>
   <time name="total">    1.03    1.03</time>
   <energy>
    <i name="e_fr_energy">   -152.28175267 </i>
    <i name="e_wo_entrp">   -152.13591715 </i>
    <i name="e_0_energy">   -152.20883491 </i>
   </energy>
  </scstep>
  <scstep>
   <time name="dav">    1.19    1.19</time>
   <time name="total">    1.26    1.26</time>
   <energy>
    <i name="e_fr_energy">   -190.69474440 </i>
    <i name="e_wo_entrp">   -190.59427999 </i>
    <i name="e_0_energy">   -190.64451220 </i>
   </energy>
  </scstep>
  <scstep>
   <time name="dav">    1.13    1.13</time>
   <time name="total">    1.20    1.20</time>
   <energy>
    <i name="e_fr_energy">   -142.61141516 </i>
    <i name="e_wo_entrp">   -142.46643135 </i>
    <i name="e_0_energy">   -142.53892326 </i>
   </energy>
  </scstep>
  <scstep>
   <time name="dav">    1.17    1.17</time>
   <time name="total">    1.25    1.25</time>
   <energy>
    <i name="e_fr_energy">   -163.76426058 </i>
    <i name="e_wo_entrp">   -163.64998183 </i>
    <i name="e_0_energy">   -163.70712120 </i>
   </energy>
  </scstep>
  <scstep>
   <time name="dav">    1.09    1.10</time>
   <time name="total">    1.16    1.17</time>
   <energy>
    <i name="e_fr_energy">   -140.77672549 </i>
    <i name="e_wo_entrp">   -140.63127274 </i>
    <i name="e_0_energy">   -140.70399912 </i>
   </energy>
  </scstep>
  <scstep>
   <time name="dav">    1.15    1.15</time>
   <time name="total">    1.22    1.22</time>
   <energy>
    <i name="e_fr_energy">   -140.94330817 </i>
    <i name="e_wo_entrp">   -140.81928787 </i>
    <i name="e_0_energy">   -140.88129802 </i>
   </energy>
  </scstep>
  <scstep>
   <time name="dav">    0.97    0.97</time>
   <time name="total">    1.04    1.04</time>
   <energy>
    <i name="e_fr_energy">   -140.76034310 </i>
    <i name="e_wo_entrp">   -140.63410112 </i>
    <i name="e_0_energy">   -140.69722211 </i>
   </energy>
  </scstep>
  <scstep>
   <time name="dav">    1.06    1.06</time>
   <time name="total">    1.13    1.13</time>
   <energy>
    <i name="e_fr_energy">   -140.63840052 </i>
    <i name="e_wo_entrp">   -140.52633159 </i>
    <i name="e_0_energy">   -140.58236605 </i>
   </energy>
  </scstep>
  <scstep>
   <time name="dav">    1.17    1.18</time>
   <time name="total">    1.24    1.24</time>
   <energy>
    <i name="e_fr_energy">   -140.50950855 </i>
    <i name="e_wo_entrp">   -140.39191714 </i>
    <i name="e_0_energy">   -140.45071284 </i>
   </energy>
  </scstep>
  <scstep>
   <time name="dav">    1.13    1.13</time>
   <time name="total">    1.20    1.20</time>
   <energy>
    <i name="e_fr_energy">   -140.46132716 </i>
    <i name="e_wo_entrp">   -140.34027278 </i>
    <i name="e_0_energy">   -140.40079997 </i>
   </energy>
  </scstep>
  <scstep>
   <time name="dav">    1.08    1.08</time>
   <time name="total">    1.15    1.16</time>
   <energy>
    <i name="e_fr_energy">   -140.38425963 </i>
    <i name="e_wo_entrp">   -140.26557667 </i>
    <i name="e_0_energy">   -140.32491815 </i>
   </energy>
  </scstep>
  <scstep>
   <time name="dav">    1.08    1.08</time>
   <time name="total">    1.15    1.15</time>
   <energy>
    <i name="e_fr_energy">   -140.39177131 </i>
    <i name="e_wo_entrp">   -140.27798027 </i>
    <i name="e_0_energy">   -140.33487579 </i>
   </energy>
  </scstep>
  <scstep>
   <time name="dav">    0.95    0.96</time>
   <time name="total">    1.02    1.03</time>
   <energy>
    <i name="e_fr_energy">   -140.33002987 </i>
    <i name="e_wo_entrp">   -140.21156681 </i>
    <i name="e_0_energy">   -140.27079834 </i>
   </energy>
  </scstep>
  <scstep>
   <time name="dav">    1.00    1.00</time>
   <time name="total">    1.07    1.07</time>
   <energy>
    <i name="e_fr_energy">   -140.35219538 </i>
    <i name="e_wo_entrp">   -140.23682986 </i>
    <i name="e_0_energy">   -140.29451262 </i>
   </energy>
  </scstep>
  <scstep>
   <time name="dav">    0.93    0.93</time>
   <time name="total">    1.00    1.00</time>
   <energy>
    <i name="e_fr_energy">   -140.32674770 </i>
    <i name="e_wo_entrp">   -140.20961670 </i>
    <i name="e_0_energy">   -140.26818220 </i>
   </energy>
  </scstep>
  <scstep>
   <time name="dav">    1.01    1.02</time>
   <time name="total">    1.08    1.08</time>
   <energy>
    <i name="e_fr_energy">   -140.32545444 </i>
    <i name="e_wo_entrp">   -140.20754595 </i>
    <i name="e_0_energy">   -140.26650019 </i>
   </energy>
  </scstep>
  <scstep>
   <time name="dav">    1.11    1.11</time>
   <time name="total">    1.18    1.18</time>
   <energy>
    <i name="e_fr_energy">   -140.32533159 </i>
    <i name="e_wo_entrp">   -140.20734916 </i>
    <i name="e_0_energy">   -140.26634038 </i>
   </energy>
  </scstep>
  <scstep>
   <time name="dav">    1.14    1.14</time>
   <time name="total">    1.21    1.21</time>
   <energy>
    <i name="e_fr_energy">   -140.32501997 </i>
    <i name="e_wo_entrp">   -140.20789145 </i>
    <i name="e_0_energy">   -140.26645571 </i>
   </energy>
  </scstep>
  <scstep>
   <time name="dav">    1.10    1.10</time>
   <time name="total">    1.17    1.17</time>
   <energy>
    <i name="e_fr_energy">   -140.32507579 </i>
    <i name="e_wo_entrp">   -140.20831294 </i>
    <i name="e_0_energy">   -140.26669436 </i>
   </energy>
  </scstep>
  <scstep>
   <time name="dav">    1.11    1.12</time>
   <time name="total">    1.18    1.18</time>
   <energy>
    <i name="e_fr_energy">   -140.32476270 </i>
    <i name="e_wo_entrp">   -140.20775636 </i>
    <i name="e_0_energy">   -140.26625953 </i>
   </energy>
  </scstep>
  <scstep>
   <time name="dav">    1.17    1.17</time>
   <time name="total">    1.24    1.24</time>
   <energy>
    <i name="e_fr_energy">   -140.32456166 </i>
    <i name="e_wo_entrp">   -140.20726697 </i>
    <i name="e_0_energy">   -140.26591431 </i>
   </energy>
  </scstep>
  <scstep>
   <time name="dav">    0.98    0.98</time>
   <time name="total">    1.05    1.05</time>
   <energy>
    <i name="e_fr_energy">   -140.32455841 </i>
    <i name="e_wo_entrp">   -140.20727401 </i>
    <i name="e_0_energy">   -140.26591621 </i>
   </energy>
  </scstep>
  <scstep>
   <time name="dav">    0.76    0.76</time>
   <time name="total">    0.80    0.80</time>
   <energy>
    <i name="alphaZ">    552.45275294 </i>
    <i name="ewald">  -4764.88537427 </i>
    <i name="hartreedc">  -1093.19691427 </i>
    <i name="XCdc">   -766.81132448 </i>
    <i name="pawpsdc">  10075.06098280 </i>
    <i name="pawaedc">  -9283.11591098 </i>
    <i name="eentropy">     -0.11733576 </i>
    <i name="bandstr">    452.80434767 </i>
    <i name="atom">   4687.48422623 </i>
    <i name="e_fr_energy">   -140.32455010 </i>
    <i name="e_wo_entrp">   -140.20721435 </i>
    <i name="e_0_energy">   -140.26588222 </i>
   </energy>
  </scstep>
  <structure>
   <crystal>
    <varray name="basis" >
     <v>      10.26482500       0.00000000       0.00000000 </v>
     <v>       0.00000000       5.09541900       0.00000000 </v>
     <v>       0.00000000       0.00000000       4.95323600 </v>
    </varray>
    <i name="volume">    259.07199687 </i>
    <varray name="rec_basis" >
     <v>       0.09742007       0.00000000       0.00000000 </v>
     <v>       0.00000000       0.19625471       0.00000000 </v>
     <v>       0.00000000       0.00000000       0.20188822 </v>
    </varray>
   </crystal>
   <varray name="positions" >
    <v>       0.00012000       0.00012000       0.25012000 </v>
    <v>       0.50012000       0.50012000       0.75012000 </v>
    <v>       0.50012000       0.50012000       0.25012000 </v>
    <v>       0.21692000       0.50012000       0.25012000 </v>
    <v>       0.78330000       0.50010000       0.25012000 </v>
    <v>       0.21690000       0.50010000       0.75012000 </v>
    <v>       0.78332000       0.50012000       0.75012000 </v>
    <v>       0.28332000       0.00012000       0.25012000 </v>
    <v>       0.71690000       0.00010000       0.25012000 </v>
    <v>       0.85850000       0.19172000       0.00010000 </v>
    <v>       0.14172000       0.80850000       0.00010000 </v>
    <v>       0.14172000       0.19172000       0.50012000 </v>
    <v>       0.85850000       0.80850000       0.50012000 </v>
    <v>       0.35850000       0.30850000       0.00012000 </v>
    <v>       0.64172000       0.69172000       0.00012000 </v>
    <v>       0.64172000       0.30850000       0.50010000 </v>
    <v>       0.35850000       0.69172000       0.50010000 </v>
    <v>       0.00012000       0.00012000       0.75012000 </v>
    <v>       0.28330000       0.00010000       0.75012000 </v>
    <v>       0.71692000       0.00012000       0.75012000 </v>
   </varray>
  </structure>
  <varray name="forces" >
   <v>      -0.00027867      -0.00012227      -0.00034716 </v>
   <v>       0.00075333       0.00023934       0.00016580 </v>
   <v>       0.00080522       0.00015645      -0.00021701 </v>
   <v>      -3.51044967       0.00024200      -0.00021307 </v>
   <v>       3.50951492      -0.00002162       0.00004209 </v>
   <v>      -2.25949883      -0.00026713       0.00017747 </v>
   <v>       2.25870713       0.00039330      -0.00024370 </v>
   <v>       2.73254990      -0.00017702      -0.00033021 </v>
   <v>      -2.73217321       0.00013547       0.00010219 </v>
   <v>       2.63713267       0.93268815      -1.28458656 </v>
   <v>      -2.63725602      -0.93307670      -1.28512742 </v>
   <v>      -2.63675723       0.93317252       1.28581889 </v>
   <v>       2.63741052      -0.93270249       1.28530975 </v>
   <v>       2.70365477      -1.76228462      -0.34971816 </v>
   <v>      -2.70307127       1.76212467      -0.34890299 </v>
   <v>      -2.70313651      -1.76240259       0.34926158 </v>
   <v>       2.70323537       1.76195927       0.35010459 </v>
   <v>      -0.00131280      -0.00015541      -0.00047695 </v>
   <v>       0.79811259       0.00039542      -0.00030523 </v>
   <v>      -0.79794221      -0.00029674      -0.00051390 </v>
  </varray>
  <varray name="stress" >
   <v>     423.06088295       0.00031473       0.00054519 </v>
   <v>       0.00031465     379.02918794      -0.00162325 </v>
   <v>       0.00054523      -0.00162318     571.02420628 </v>
  </varray>
  <energy>
   <i name="e_fr_energy">   -140.32455010 </i>
   <i name="e_wo_entrp">   -140.26588222 </i>
   <i name="e_0_energy">     -0.11733576 </i>
  </energy>
  <time name="totalsc">   30.85   30.90</time>
 </calculation>
 <calculation>
  <scstep>
   <time name="dav">    0.69    0.69</time>
   <time name="total">    0.76    0.76</time>
   <energy>
    <i name="alphaZ">    337.87533442 </i>
    <i name="ewald">  -4155.01378036 </i>
    <i name="hartreedc">   -848.43206910 </i>
    <i name="XCdc">   -790.84741048 </i>
    <i name="pawpsdc">  10074.76967616 </i>
    <i name="pawaedc">  -9282.83198932 </i>
    <i name="eentropy">     -0.23002415 </i>
    <i name="bandstr">   -274.14777835 </i>
    <i name="atom">   4687.48422623 </i>
    <i name="e_fr_energy">   -251.37381494 </i>
    <i name="e_wo_entrp">   -251.14379079 </i>
    <i name="e_0_energy">   -251.25880287 </i>
   </energy>
  </scstep>
  <scstep>
   <time name="dav">    0.98    0.98</time>
   <time name="total">    1.05    1.05</time>
   <energy>
    <i name="e_fr_energy">   -423.48509799 </i>
    <i name="e_wo_entrp">   -423.40919175 </i>
    <i name="e_0_energy">   -423.44714487 </i>
   </energy>
  </scstep>
  <scstep>
   <time name="dav">    1.02    1.02</time>
   <time name="total">    1.09    1.09</time>
   <energy>
    <i name="e_fr_energy">   -170.44977699 </i>
    <i name="e_wo_entrp">   -170.34782646 </i>
    <i name="e_0_energy">   -170.39880173 </i>
   </energy>
  </scstep>
  <scstep>
   <time name="dav">    1.02    1.02</time>
   <time name="total">    1.08    1.09</time>
   <energy>
    <i name="e_fr_energy">   -199.05455423 </i>
    <i name="e_wo_entrp">   -198.87445527 </i>
    <i name="e_0_energy">   -198.96450475 </i>
   </energy>
  </scstep>
  <scstep>
   <time name="dav">    1.05    1.05</time>
   <time name="total">    1.11    1.11</time>
   <energy>
    <i name="e_fr_energy">   -158.45521322 </i>
    <i name="e_wo_entrp">   -158.30807000 </i>
    <i name="e_0_energy">   -158.38164161 </i>
   </energy>
  </scstep>
  <scstep>
   <time name="dav">    1.00    1.00</time>
   <time name="total">    1.07    1.07</time>
   <energy>
    <i name="e_fr_energy">   -149.76867462 </i>
    <i name="e_wo_entrp">   -149.53546192 </i>
    <i name="e_0_energy">   -149.65206827 </i>
   </energy>
  </scstep>
  <scstep>
   <time name="dav">    1.03    1.03</time>
   <time name="total">    1.09    1.09</time>
   <energy>
    <i name="e_fr_energy">   -147.44921903 </i>
    <i name="e_wo_entrp">   -147.25939788 </i>
    <i name="e_0_energy">   -147.35430845 </i>
   </energy>
  </scstep>
  <scstep>
   <time name="dav">    1.06    1.06</time>
   <time name="total">    1.12    1.12</time>
   <energy>
    <i name="e_fr_energy">   -144.32188669 </i>
    <i name="e_wo_entrp">   -144.10052405 </i>
    <i name="e_0_energy">   -144.21120537 </i>
   </energy>
  </scstep>
  <scstep>
   <time name="dav">    1.00    1.00</time>
   <time name="total">    1.06    1.06</time>
   <energy>
    <i name="e_fr_energy">   -143.70130823 </i>
    <i name="e_wo_entrp">   -143.47182093 </i>
    <i name="e_0_energy">   -143.58656458 </i>
   </energy>
  </scstep>
  <scstep>
   <time name="dav">    1.05    1.05</time>
   <time name="total">    1.12    1.12</time>
   <energy>
    <i name="e_fr_energy">   -143.36562649 </i>
    <i name="e_wo_entrp">   -143.13482583 </i>
    <i name="e_0_energy">   -143.25022616 </i>
   </energy>
  </scstep>
  <scstep>
   <time name="dav">    1.14    1.14</time>
   <time name="total">    1.21    1.21</time>
   <energy>
    <i name="e_fr_energy">   -146.27785149 </i>
    <i name="e_wo_entrp">   -146.06628490 </i>
    <i name="e_0_energy">   -146.17206820 </i>
   </energy>
  </scstep>
  <scstep>
   <time name="dav">    1.13    1.13</time>
   <time name="total">    1.19    1.20</time>
   <energy>
    <i name="e_fr_energy">   -145.70206081 </i>
    <i name="e_wo_entrp">   -145.50123468 </i>
    <i name="e_0_energy">   -145.60164774 </i>
   </energy>
  </scstep>
  <scstep>
   <time name="dav">    1.16    1.17</time>
   <time name="total">    1.23    1.23</time>
   <energy>
    <i name="e_fr_energy">   -144.31720577 </i>
    <i name="e_wo_entrp">   -144.10364377 </i>
    <i name="e_0_energy">   -144.21042477 </i>
   </energy>
  </scstep>
  <scstep>
   <time name="dav">    1.17    1.17</time>
   <time name="total">    1.23    1.24</time>
   <energy>
    <i name="e_fr_energy">   -143.41102535 </i>
    <i name="e_wo_entrp">   -143.17983536 </i>
    <i name="e_0_energy">   -143.29543036 </i>
   </energy>
  </scstep>
  <scstep>
   <time name="dav">    0.99    1.00</time>
   <time name="total">    1.06    1.06</time>
   <energy>
    <i name="e_fr_energy">   -141.88090523 </i>
    <i name="e_wo_entrp">   -141.64091469 </i>
    <i name="e_0_energy">   -141.76090996 </i>
   </energy>
  </scstep>
  <scstep>
   <time name="dav">    1.10    1.11</time>
   <time name="total">    1.17    1.17</time>
   <energy>
    <i name="e_fr_energy">   -140.99180006 </i>
    <i name="e_wo_entrp">   -140.76312250 </i>
    <i name="e_0_energy">   -140.87746128 </i>
   </energy>
  </scstep>
  <scstep>
   <time name="dav">    1.13    1.13</time>
   <time name="total">    1.20    1.20</time>
   <energy>
    <i name="e_fr_energy">   -140.86496852 </i>
    <i name="e_wo_entrp">   -140.62711952 </i>
    <i name="e_0_energy">   -140.74604402 </i>
   </energy>
  </scstep>
  <scstep>
   <time name="dav">    1.14    1.15</time>
   <time name="total">    1.21    1.21</time>
   <energy>
    <i name="e_fr_energy">   -140.66104074 </i>
    <i name="e_wo_entrp">   -140.41339692 </i>
    <i name="e_0_energy">   -140.53721883 </i>
   </energy>
  </scstep>
  <scstep>
   <time name="dav">    1.11    1.11</time>
   <time name="total">    1.18    1.18</time>
   <energy>
    <i name="e_fr_energy">   -140.87423609 </i>
    <i name="e_wo_entrp">   -140.61978772 </i>
    <i name="e_0_energy">   -140.74701190 </i>
   </energy>
  </scstep>
  <scstep>
   <time name="dav">    1.04    1.04</time>
   <time name="total">    1.11    1.11</time>
   <energy>
    <i name="e_fr_energy">   -140.77982500 </i>
    <i name="e_wo_entrp">   -140.53806292 </i>
    <i name="e_0_energy">   -140.65894396 </i>
   </energy>
  </scstep>
  <scstep>
   <time name="dav">    1.07    1.07</time>
   <time name="total">    1.14    1.15</time>
   <energy>
    <i name="e_fr_energy">   -140.67470945 </i>
    <i name="e_wo_entrp">   -140.43350408 </i>
    <i name="e_0_energy">   -140.55410677 </i>
   </energy>
  </scstep>
  <scstep>
   <time name="dav">    1.13    1.13</time>
   <time name="total">    1.20    1.20</time>
   <energy>
    <i name="e_fr_energy">   -140.59523268 </i>
    <i name="e_wo_entrp">   -140.34767994 </i>
    <i name="e_0_energy">   -140.47145631 </i>
   </energy>
  </scstep>
  <scstep>
   <time name="dav">    1.13    1.13</time>
   <time name="total">    1.20    1.20</time>
   <energy>
    <i name="e_fr_energy">   -140.56525390 </i>
    <i name="e_wo_entrp">   -140.31634782 </i>
    <i name="e_0_energy">   -140.44080086 </i>
   </energy>
  </scstep>
  <scstep>
   <time name="dav">    1.05    1.05</time>
   <time name="total">    1.12    1.12</time>
   <energy>
    <i name="e_fr_energy">   -140.55044618 </i>
    <i name="e_wo_entrp">   -140.30201518 </i>
    <i name="e_0_energy">   -140.42623068 </i>
   </energy>
  </scstep>
  <scstep>
   <time name="dav">    1.00    1.01</time>
   <time name="total">    1.07    1.08</time>
   <energy>
    <i name="e_fr_energy">   -140.54114548 </i>
    <i name="e_wo_entrp">   -140.29406256 </i>
    <i name="e_0_energy">   -140.41760402 </i>
   </energy>
  </scstep>
  <scstep>
   <time name="dav">    0.98    0.98</time>
   <time name="total">    1.05    1.05</time>
   <energy>
    <i name="e_fr_energy">   -140.54108389 </i>
    <i name="e_wo_entrp">   -140.29373099 </i>
    <i name="e_0_energy">   -140.41740744 </i>
   </energy>
  </scstep>
  <scstep>
   <time name="dav">    1.03    1.03</time>
   <time name="total">    1.09    1.09</time>
   <energy>
    <i name="e_fr_energy">   -140.54076909 </i>
    <i name="e_wo_entrp">   -140.29339731 </i>
    <i name="e_0_energy">   -140.41708320 </i>
   </energy>
  </scstep>
  <scstep>
   <time name="dav">    1.03    1.03</time>
   <time name="total">    1.10    1.10</time>
   <energy>
    <i name="e_fr_energy">   -140.54057342 </i>
    <i name="e_wo_entrp">   -140.29309759 </i>
    <i name="e_0_energy">   -140.41683551 </i>
   </energy>
  </scstep>
  <scstep>
   <time name="dav">    1.09    1.09</time>
   <time name="total">    1.15    1.15</time>
   <energy>
    <i name="e_fr_energy">   -140.54021725 </i>
    <i name="e_wo_entrp">   -140.29274995 </i>
    <i name="e_0_energy">   -140.41648360 </i>
   </energy>
  </scstep>
  <scstep>
   <time name="dav">    1.01    1.01</time>
   <time name="total">    1.08    1.08</time>
   <energy>
    <i name="e_fr_energy">   -140.54019630 </i>
    <i name="e_wo_entrp">   -140.29283718 </i>
    <i name="e_0_energy">   -140.41651674 </i>
   </energy>
  </scstep>
  <scstep>
   <time name="dav">    1.02    1.02</time>
   <time name="total">    1.09    1.09</time>
   <energy>
    <i name="e_fr_energy">   -140.54016342 </i>
    <i name="e_wo_entrp">   -140.29282793 </i>
    <i name="e_0_energy">   -140.41649568 </i>
   </energy>
  </scstep>
  <scstep>
   <time name="dav">    0.60    0.60</time>
   <time name="total">    0.64    0.64</time>
   <energy>
    <i name="alphaZ">    337.87533442 </i>
    <i name="ewald">  -4155.01378036 </i>
    <i name="hartreedc">  -1172.42184915 </i>
    <i name="XCdc">   -785.04980952 </i>
    <i name="pawpsdc">   6235.14058064 </i>
    <i name="pawaedc">  -5414.64844803 </i>
    <i name="eentropy">     -0.24733721 </i>
    <i name="bandstr">    126.34092421 </i>
    <i name="atom">   4687.48422623 </i>
    <i name="e_fr_energy">   -140.54015877 </i>
    <i name="e_wo_entrp">   -140.29282156 </i>
    <i name="e_0_energy">   -140.41649017 </i>
   </energy>
  </scstep>
  <structure>
   <crystal>
    <varray name="basis" >
     <v>      11.95863818       0.00000126       0.00000218 </v>
     <v>       0.00000063       5.84871150      -0.00000323 </v>
     <v>       0.00000105      -0.00000314       6.05643695 </v>
    </varray>
    <i name="volume">    423.60309645 </i>
    <varray name="rec_basis" >
     <v>       0.08362156      -0.00000001      -0.00000001 </v>
     <v>      -0.00000002       0.17097783       0.00000009 </v>
     <v>      -0.00000003       0.00000009       0.16511358 </v>
    </varray>
   </crystal>
   <varray name="positions" >
    <v>       0.00011869       0.00011884       0.25011662 </v>
    <v>       0.50012354       0.50012227       0.75012161 </v>
    <v>       0.50012378       0.50012148       0.25011789 </v>
    <v>       0.20042158       0.50012229       0.25011792 </v>
    <v>       0.79979403       0.50009980       0.25012041 </v>
    <v>       0.20628080       0.50009747       0.75012173 </v>
    <v>       0.79393548       0.50012372       0.75011763 </v>
    <v>       0.29616245       0.00011832       0.25011678 </v>
    <v>       0.70405932       0.00010128       0.25012100 </v>
    <v>       0.87089400       0.20055055      -0.01241139 </v>
    <v>       0.12932542       0.79966577      -0.01241666 </v>
    <v>       0.12932776       0.20055514       0.51264339 </v>
    <v>       0.87089531       0.79966931       0.51263843 </v>
    <v>       0.37120664       0.29181496      -0.00328612 </v>
    <v>       0.62901610       0.70840353      -0.00327818 </v>
    <v>       0.62901579       0.29181384       0.50350168 </v>
    <v>       0.37120467       0.70840196       0.50350989 </v>
    <v>       0.00011383       0.00011853       0.75011535 </v>
    <v>       0.28705097       0.00010374       0.75011703 </v>
    <v>       0.71316983       0.00011719       0.75011499 </v>
   </varray>
  </structure>
  <varray name="forces" >
   <v>       0.00078806       0.00066684      -0.00126461 </v>
   <v>       0.00025168      -0.00054335      -0.00150494 </v>
   <v>       0.00011589      -0.00057664       0.00102591 </v>
   <v>       0.28218863       0.00057514      -0.00065634 </v>
   <v>      -0.28281525      -0.00206798      -0.00113337 </v>
   <v>       0.82340837       0.00041502       0.00047156 </v>
   <v>      -0.82352822      -0.00116089       0.00087139 </v>
   <v>      -0.51368252      -0.00045213      -0.00015235 </v>
   <v>       0.51327941       0.00100980       0.00009644 </v>
   <v>      -0.42966466      -0.88410409      -0.64208719 </v>
   <v>       0.42904396       0.88438533      -0.64150412 </v>
   <v>       0.42882544      -0.88472397       0.64182372 </v>
   <v>      -0.42839406       0.88523162       0.64300256 </v>
   <v>      -0.89404401      -0.45653328      -0.42673809 </v>
   <v>       0.89418333       0.45727310      -0.42769293 </v>
   <v>       0.89409364      -0.45639455       0.42729363 </v>
   <v>      -0.89408196       0.45620763       0.42677081 </v>
   <v>      -0.00011251       0.00033543       0.00071250 </v>
   <v>      -0.94333895       0.00041793       0.00043632 </v>
   <v>       0.94348374       0.00003903       0.00022910 </v>
  </varray>
  <varray name="stress" >
   <v>    -293.45202824       0.06953400       0.00215232 </v>
   <v>       0.06953394    -274.59769463       0.01388957 </v>
   <v>       0.00215237       0.01388953    -304.82989417 </v>
  </varray>
  <energy>
   <i name="e_fr_energy">   -140.54015877 </i>
   <i name="e_wo_entrp">   -140.41649017 </i>
   <i name="e_0_energy">     -0.24733721 </i>
  </energy>
  <time name="totalsc">   36.67   36.72</time>
 </calculation>
 <calculation>
  <scstep>
   <time name="dav">    0.66    0.66</time>
   <time name="total">    0.73    0.73</time>
   <energy>
    <i name="alphaZ">    429.63529057 </i>
    <i name="ewald">  -4456.51715079 </i>
    <i name="hartreedc">  -1308.53383012 </i>
    <i name="XCdc">   -770.12076333 </i>
    <i name="pawpsdc">   6235.36677852 </i>
    <i name="pawaedc">  -5414.88149869 </i>
    <i name="eentropy">     -0.11480587 </i>
    <i name="bandstr">    402.55094286 </i>
    <i name="atom">   4687.48422623 </i>
    <i name="e_fr_energy">   -195.13081061 </i>
    <i name="e_wo_entrp">   -195.01600474 </i>
    <i name="e_0_energy">   -195.07340768 </i>
   </energy>
  </scstep>
  <scstep>
   <time name="dav">    1.12    1.12</time>
   <time name="total">    1.19    1.19</time>
   <energy>
    <i name="e_fr_energy">   -410.92535373 </i>
    <i name="e_wo_entrp">   -410.89698392 </i>
    <i name="e_0_energy">   -410.91116883 </i>
   </energy>
  </scstep>
  <scstep>
   <time name="dav">    0.99    1.00</time>
   <time name="total">    1.06    1.06</time>
   <energy>
    <i name="e_fr_energy">   -367.53228662 </i>
    <i name="e_wo_entrp">   -367.41116048 </i>
    <i name="e_0_energy">   -367.47172355 </i>
   </energy>
  </scstep>
  <scstep>
   <time name="dav">    0.95    0.96</time>
   <time name="total">    1.02    1.02</time>
   <energy>
    <i name="e_fr_energy">   -158.89684263 </i>
    <i name="e_wo_entrp">   -158.72956121 </i>
    <i name="e_0_energy">   -158.81320192 </i>
   </energy>
  </scstep>
  <scstep>
   <time name="dav">    1.09    1.09</time>
   <time name="total">    1.15    1.16</time>
   <energy>
    <i name="e_fr_energy">   -157.12800915 </i>
    <i name="e_wo_entrp">   -156.97195134 </i>
    <i name="e_0_energy">   -157.04998024 </i>
   </energy>
  </scstep>
  <scstep>
   <time name="dav">    1.08    1.08</time>
   <time name="total">    1.15    1.15</time>
   <energy>
    <i name="e_fr_energy">   -160.98900779 </i>
    <i name="e_wo_entrp">   -160.86360057 </i>
    <i name="e_0_energy">   -160.92630418 </i>
   </energy>
  </scstep>
  <scstep>
   <time name="dav">    1.01    1.02</time>
   <time name="total">    1.08    1.08</time>
   <energy>
    <i name="e_fr_energy">   -156.06152313 </i>
    <i name="e_wo_entrp">   -155.89606907 </i>
    <i name="e_0_energy">   -155.97879610 </i>
   </energy>
  </scstep>
  <scstep>
   <time name="dav">    1.14    1.15</time>
   <time name="total">    1.21    1.21</time>
   <energy>
    <i name="e_fr_energy">   -151.02559017 </i>
    <i name="e_wo_entrp">   -150.86883585 </i>
    <i name="e_0_energy">   -150.94721301 </i>
   </energy>
  </scstep>
  <scstep>
   <time name="dav">    1.15    1.15</time>
   <time name="total">    1.22    1.22</time>
   <energy>
    <i name="e_fr_energy">   -151.48080803 </i>
    <i name="e_wo_entrp">   -151.32389101 </i>
    <i name="e_0_energy">   -151.40234952 </i>
   </energy>
  </scstep>
  <scstep>
   <time name="dav">    1.07    1.07</time>
   <time name="total">    1.13    1.13</time>
   <energy>
    <i name="e_fr_energy">   -151.30050332 </i>
    <i name="e_wo_entrp">   -151.14547171 </i>
    <i name="e_0_energy">   -151.22298751 </i>
   </energy>
  </scstep>
  <scstep>
   <time name="dav">    1.14    1.14</time>
   <time name="total">    1.21    1.22</time>
   <energy>
    <i name="e_fr_energy">   -151.08155745 </i>
    <i name="e_wo_entrp">   -150.91958176 </i>
    <i name="e_0_energy">   -151.00056960 </i>
   </energy>
  </scstep>
  <scstep>
   <time name="dav">    1.14    1.14</time>
   <time name="total">    1.21    1.21</time>
   <energy>
    <i name="e_fr_energy">   -150.83156770 </i>
    <i name="e_wo_entrp">   -150.65952531 </i>
    <i name="e_0_energy">   -150.74554650 </i>
   </energy>
  </scstep>
  <scstep>
   <time name="dav">    1.08    1.08</time>
   <time name="total">    1.15    1.15</time>
   <energy>
    <i name="e_fr_energy">   -150.68974114 </i>
    <i name="e_wo_entrp">   -150.51155091 </i>
    <i name="e_0_energy">   -150.60064602 </i>
   </energy>
  </scstep>
  <scstep>
   <time name="dav">    1.15    1.15</time>
   <time name="total">    1.22    1.22</time>
   <energy>
    <i name="e_fr_energy">   -150.66413703 </i>
    <i name="e_wo_entrp">   -150.47580028 </i>
    <i name="e_0_energy">   -150.56996866 </i>
   </energy>
  </scstep>
  <scstep>
   <time name="dav">    1.00    1.00</time>
   <time name="total">    1.07    1.07</time>
   <energy>
    <i name="e_fr_energy">   -150.66273486 </i>
    <i name="e_wo_entrp">   -150.47457938 </i>
    <i name="e_0_energy">   -150.56865712 </i>
   </energy>
  </scstep>
  <scstep>
   <time name="dav">    1.13    1.13</time>
   <time name="total">    1.20    1.20</time>
   <energy>
    <i name="e_fr_energy">   -150.65493149 </i>
    <i name="e_wo_entrp">   -150.47022273 </i>
    <i name="e_0_energy">   -150.56257711 </i>
   </energy>
  </scstep>
  <scstep>
   <time name="dav">    1.05    1.05</time>
   <time name="total">    1.12    1.12</time>
   <energy>
    <i name="e_fr_energy">   -150.66667198 </i>
    <i name="e_wo_entrp">   -150.48627747 </i>
    <i name="e_0_energy">   -150.57647473 </i>
   </energy>
  </scstep>
  <scstep>
   <time name="dav">    1.10    1.10</time>
   <time name="total">    1.17    1.17</time>
   <energy>
    <i name="e_fr_energy">   -150.65837862 </i>
    <i name="e_wo_entrp">   -150.47665512 </i>
    <i name="e_0_energy">   -150.56751687 </i>
   </energy>
  </scstep>
  <scstep>
   <time name="dav">    1.17    1.17</time>
   <time name="total">    1.23    1.23</time>
   <energy>
    <i name="e_fr_energy">   -150.64486163 </i>
    <i name="e_wo_entrp">   -150.45904808 </i>
    <i name="e_0_energy">   -150.55195485 </i>
   </energy>
  </scstep>
  <scstep>
   <time name="dav">    0.99    1.00</time>
   <time name="total">    1.06    1.06</time>
   <energy>
    <i name="e_fr_energy">   -150.64460249 </i>
    <i name="e_wo_entrp">   -150.45854527 </i>
    <i name="e_0_energy">   -150.55157388 </i>
   </energy>
  </scstep>
  <scstep>
   <time name="dav">    0.99    0.99</time>
   <time name="total">    1.06    1.06</time>
   <energy>
    <i name="e_fr_energy">   -150.64294008 </i>
    <i name="e_wo_entrp">   -150.45660242 </i>
    <i name="e_0_energy">   -150.54977125 </i>
   </energy>
  </scstep>
  <scstep>
   <time name="dav">    0.98    0.99</time>
   <time name="total">    1.05    1.05</time>
   <energy>
    <i name="e_fr_energy">   -150.64227612 </i>
    <i name="e_wo_entrp">   -150.45524917 </i>
    <i name="e_0_energy">   -150.54876265 </i>
   </energy>
  </scstep>
  <scstep>
   <time name="dav">    0.91    0.91</time>
   <time name="total">    0.98    0.98</time>
   <energy>
    <i name="e_fr_energy">   -150.64182707 </i>
    <i name="e_wo_entrp">   -150.45490786 </i>
    <i name="e_0_energy">   -150.54836746 </i>
   </energy>
  </scstep>
  <scstep>
   <time name="dav">    1.01    1.01</time>
   <time name="total">    1.08    1.08</time>
   <energy>
    <i name="e_fr_energy">   -150.64149302 </i>
    <i name="e_wo_entrp">   -150.45435748 </i>
    <i name="e_0_energy">   -150.54792525 </i>
   </energy>
  </scstep>
  <scstep>
   <time name="dav">    0.93    0.93</time>
   <time name="total">    1.00    1.00</time>
   <energy>
    <i name="e_fr_energy">   -150.64108344 </i>
    <i name="e_wo_entrp">   -150.45374158 </i>
    <i name="e_0_energy">   -150.54741251 </i>
   </energy>
  </scstep>
  <scstep>
   <time name="dav">    0.93    0.93</time>
   <time name="total">    1.00    1.00</time>
   <energy>
    <i name="e_fr_energy">   -150.64088527 </i>
    <i name="e_wo_entrp">   -150.45329845 </i>
    <i name="e_0_energy">   -150.54709186 </i>
   </energy>
  </scstep>
  <scstep>
   <time name="dav">    0.95    0.95</time>
   <time name="total">    1.02    1.02</time>
   <energy>
    <i name="e_fr_energy">   -150.64071814 </i>
    <i name="e_wo_entrp">   -150.45317990 </i>
    <i name="e_0_energy">   -150.54694902 </i>
   </energy>
  </scstep>
  <scstep>
   <time name="dav">    0.95    0.95</time>
   <time name="total">    1.01    1.02</time>
   <energy>
    <i name="e_fr_energy">   -150.64064157 </i>
    <i name="e_wo_entrp">   -150.45308851 </i>
    <i name="e_0_energy">   -150.54686504 </i>
   </energy>
  </scstep>
  <scstep>
   <time name="dav">    0.94    0.94</time>
   <time name="total">    1.01    1.01</time>
   <energy>
    <i name="e_fr_energy">   -150.64047247 </i>
    <i name="e_wo_entrp">   -150.45268757 </i>
    <i name="e_0_energy">   -150.54658002 </i>
   </energy>
  </scstep>
  <scstep>
   <time name="dav">    0.91    0.92</time>
   <time name="total">    0.98    0.98</time>
   <energy>
    <i name="e_fr_energy">   -150.64044324 </i>
    <i name="e_wo_entrp">   -150.45265061 </i>
    <i name="e_0_energy">   -150.54654693 </i>
   </energy>
  </scstep>
  <scstep>
   <time name="dav">    0.82    0.82</time>
   <time name="total">    0.89    0.89</time>
   <energy>
    <i name="e_fr_energy">   -150.64042212 </i>
    <i name="e_wo_entrp">   -150.45268276 </i>
    <i name="e_0_energy">   -150.54655244 </i>
   </energy>
  </scstep>
  <scstep>
   <time name="dav">    0.48    0.48</time>
   <time name="total">    0.52    0.52</time>
   <energy>
    <i name="alphaZ">    429.63529057 </i>
    <i name="ewald">  -4456.51715079 </i>
    <i name="hartreedc">  -1111.77532590 </i>
    <i name="XCdc">   -776.08753579 </i>
    <i name="pawpsdc">   7491.51734794 </i>
    <i name="pawaedc">  -6684.68429828 </i>
    <i name="eentropy">     -0.18775748 </i>
    <i name="bandstr">    269.97478652 </i>
    <i name="atom">   4687.48422623 </i>
    <i name="e_fr_energy">   -150.64041698 </i>
    <i name="e_wo_entrp">   -150.45265950 </i>
    <i name="e_0_energy">   -150.54653824 </i>
   </energy>
  </scstep>
  <structure>
   <crystal>
    <varray name="basis" >
     <v>      11.09535110       0.00000062       0.00000107 </v>
     <v>       0.00000031       5.46478033      -0.00000158 </v>
     <v>       0.00000052      -0.00000154       5.49416766 </v>
    </varray>
    <i name="volume">    333.13147457 </i>
    <varray name="rec_basis" >
     <v>       0.09012784      -0.00000001      -0.00000001 </v>
     <v>      -0.00000001       0.18298997       0.00000005 </v>
     <v>      -0.00000002       0.00000005       0.18201119 </v>
    </varray>
   </crystal>
   <varray name="positions" >
    <v>       0.00011926       0.00011936       0.25011803 </v>
    <v>       0.50012199       0.50012126       0.75012094 </v>
    <v>       0.50012213       0.50012082       0.25011877 </v>
    <v>       0.20763933       0.50012127       0.25011879 </v>
    <v>       0.79257820       0.50009989       0.25012024 </v>
    <v>       0.21092650       0.50009859       0.75012101 </v>
    <v>       0.78929140       0.50012207       0.75011862 </v>
    <v>       0.29054412       0.00011907       0.25011813 </v>
    <v>       0.70967688       0.00010071       0.25012058 </v>
    <v>       0.86547186       0.19662955      -0.00719624 </v>
    <v>       0.13474782       0.80358841      -0.00719931 </v>
    <v>       0.13474914       0.19663209       0.50742323 </v>
    <v>       0.86547259       0.80359038       0.50742035 </v>
    <v>       0.36564772       0.29922357      -0.00186633 </v>
    <v>       0.63457382       0.70099559      -0.00186172 </v>
    <v>       0.63457365       0.29922294       0.50208375 </v>
    <v>       0.36564662       0.70099472       0.50208853 </v>
    <v>       0.00011653       0.00011918       0.75011729 </v>
    <v>       0.28540999       0.00010208       0.75011827 </v>
    <v>       0.71481046       0.00011844       0.75011708 </v>
   </varray>
  </structure>
  <varray name="forces" >
   <v>      -0.00110507       0.00055827      -0.00040073 </v>
   <v>      -0.00089198       0.00006460      -0.00008694 </v>
   <v>      -0.00092064       0.00006227      -0.00019804 </v>
   <v>      -0.73327011      -0.00022693      -0.00002658 </v>
   <v>       0.73441733      -0.00076278      -0.00071945 </v>
   <v>       0.10592316      -0.00039757       0.00001595 </v>
   <v>      -0.10467439      -0.00043159       0.00058425 </v>
   <v>       0.31706130       0.00014494       0.00002496 </v>
   <v>      -0.31573787       0.00021915      -0.00040055 </v>
   <v>       0.36322423      -0.49354828      -0.84051264 </v>
   <v>      -0.36400087       0.49342379      -0.84028557 </v>
   <v>      -0.36399938      -0.49316496       0.84054203 </v>
   <v>       0.36373765       0.49403026       0.84111381 </v>
   <v>       0.05060834      -0.59264607      -0.38012220 </v>
   <v>      -0.05043450       0.59400657      -0.38021250 </v>
   <v>      -0.05067200      -0.59395287       0.38074293 </v>
   <v>       0.05033319       0.59256961       0.38071426 </v>
   <v>      -0.00056458       0.00023208      -0.00019279 </v>
   <v>      -0.71408977       0.00009293      -0.00048276 </v>
   <v>       0.71505595      -0.00027344      -0.00009743 </v>
  </varray>
  <varray name="stress" >
   <v>     -58.47560413       0.01202181       0.00074328 </v>
   <v>       0.01202187     -59.80428576       0.00251598 </v>
   <v>       0.00074329       0.00251591       9.32752755 </v>
  </varray>
  <energy>
   <i name="e_fr_energy">   -150.64041698 </i>
   <i name="e_wo_entrp">   -150.54653824 </i>
   <i name="e_0_energy">     -0.18775748 </i>
  </energy>
  <time name="totalsc">   35.56   35.61</time>
 </calculation>
 <calculation>
  <scstep>
   <time name="dav">    0.66    0.66</time>
   <time name="total">    0.73    0.73</time>
   <energy>
    <i name="alphaZ">    435.08089752 </i>
    <i name="ewald">  -4472.45786232 </i>
    <i name="hartreedc">  -1118.79948454 </i>
    <i name="XCdc">   -775.35685262 </i>
    <i name="pawpsdc">   7491.95249062 </i>
    <i name="pawaedc">  -6685.11987128 </i>
    <i name="eentropy">     -0.19334884 </i>
    <i name="bandstr">    286.61541725 </i>
    <i name="atom">   4687.48422623 </i>
    <i name="e_fr_energy">   -150.79438797 </i>
    <i name="e_wo_entrp">   -150.60103914 </i>
    <i name="e_0_energy">   -150.69771355 </i>
   </energy>
  </scstep>
  <scstep>
   <time name="dav">    1.14    1.14</time>
   <time name="total">    1.21    1.21</time>
   <energy>
    <i name="e_fr_energy">   -154.37577660 </i>
    <i name="e_wo_entrp">   -154.24316990 </i>
    <i name="e_0_energy">   -154.30947325 </i>
   </energy>
  </scstep>
  <scstep>
   <time name="dav">    1.15    1.15</time>
   <time name="total">    1.21    1.21</time>
   <energy>
    <i name="e_fr_energy">   -150.57531008 </i>
    <i name="e_wo_entrp">   -150.39039817 </i>
    <i name="e_0_energy">   -150.48285413 </i>
   </energy>
  </scstep>
  <scstep>
   <time name="dav">    0.99    1.00</time>
   <time name="total">    1.06    1.06</time>
   <energy>
    <i name="e_fr_energy">   -150.75434663 </i>
    <i name="e_wo_entrp">   -150.56031098 </i>
    <i name="e_0_energy">   -150.65732880 </i>
   </energy>
  </scstep>
  <scstep>
   <time name="dav">    1.00    1.00</time>
   <time name="total">    1.07    1.07</time>
   <energy>
    <i name="e_fr_energy">   -150.68846505 </i>
    <i name="e_wo_entrp">   -150.49719769 </i>
    <i name="e_0_energy">   -150.59283137 </i>
   </energy>
  </scstep>
  <scstep>
   <time name="dav">    1.10    1.11</time>
   <time name="total">    1.17    1.17</time>
   <energy>
    <i name="e_fr_energy">   -150.68401766 </i>
    <i name="e_wo_entrp">   -150.49755348 </i>
    <i name="e_0_energy">   -150.59078557 </i>
   </energy>
  </scstep>
  <scstep>
   <time name="dav">    1.13    1.13</time>
   <time name="total">    1.19    1.19</time>
   <energy>
    <i name="e_fr_energy">   -150.67389852 </i>
    <i name="e_wo_entrp">   -150.48833135 </i>
    <i name="e_0_energy">   -150.58111493 </i>
   </energy>
  </scstep>
  <scstep>
   <time name="dav">    0.96    0.96</time>
   <time name="total">    1.03    1.03</time>
   <energy>
    <i name="e_fr_energy">   -150.67394343 </i>
    <i name="e_wo_entrp">   -150.48837896 </i>
    <i name="e_0_energy">   -150.58116120 </i>
   </energy>
  </scstep>
  <scstep>
   <time name="dav">    1.08    1.08</time>
   <time name="total">    1.15    1.15</time>
   <energy>
    <i name="e_fr_energy">   -150.67384892 </i>
    <i name="e_wo_entrp">   -150.48843860 </i>
    <i name="e_0_energy">   -150.58114376 </i>
   </energy>
  </scstep>
  <scstep>
   <time name="dav">    1.10    1.10</time>
   <time name="total">    1.16    1.16</time>
   <energy>
    <i name="e_fr_energy">   -150.67385144 </i>
    <i name="e_wo_entrp">   -150.48805259 </i>
    <i name="e_0_energy">   -150.58095202 </i>
   </energy>
  </scstep>
  <scstep>
   <time name="dav">    1.16    1.16</time>
   <time name="total">    1.22    1.22</time>
   <energy>
    <i name="e_fr_energy">   -150.67394747 </i>
    <i name="e_wo_entrp">   -150.48875711 </i>
    <i name="e_0_energy">   -150.58135229 </i>
   </energy>
  </scstep>
  <scstep>
   <time name="dav">    1.02    1.02</time>
   <time name="total">    1.09    1.09</time>
   <energy>
    <i name="e_fr_energy">   -150.67365284 </i>
    <i name="e_wo_entrp">   -150.48829426 </i>
    <i name="e_0_energy">   -150.58097355 </i>
   </energy>
  </scstep>
  <scstep>
   <time name="dav">    1.04    1.05</time>
   <time name="total">    1.11    1.11</time>
   <energy>
    <i name="e_fr_energy">   -150.67365516 </i>
    <i name="e_wo_entrp">   -150.48824354 </i>
    <i name="e_0_energy">   -150.58094935 </i>
   </energy>
  </scstep>
  <scstep>
   <time name="dav">    0.91    0.91</time>
   <time name="total">    0.98    0.98</time>
   <energy>
    <i name="e_fr_energy">   -150.67365049 </i>
    <i name="e_wo_entrp">   -150.48823856 </i>
    <i name="e_0_energy">   -150.58094452 </i>
   </energy>
  </scstep>
  <scstep>
   <time name="dav">    0.90    0.90</time>
   <time name="total">    0.96    0.96</time>
   <energy>
    <i name="e_fr_energy">   -150.67363488 </i>
    <i name="e_wo_entrp">   -150.48813901 </i>
    <i name="e_0_energy">   -150.58088694 </i>
   </energy>
  </scstep>
  <scstep>
   <time name="dav">    0.50    0.51</time>
   <time name="total">    0.55    0.55</time>
   <energy>
    <i name="alphaZ">    435.08089752 </i>
    <i name="ewald">  -4472.45786232 </i>
    <i name="hartreedc">  -1109.46388164 </i>
    <i name="XCdc">   -775.61320478 </i>
    <i name="pawpsdc">   7583.67970554 </i>
    <i name="pawaedc">  -6777.55532082 </i>
    <i name="eentropy">     -0.18554988 </i>
    <i name="bandstr">    278.35736295 </i>
    <i name="atom">   4687.48422623 </i>
    <i name="e_fr_energy">   -150.67362721 </i>
    <i name="e_wo_entrp">   -150.48807733 </i>
    <i name="e_0_energy">   -150.58085227 </i>
   </energy>
  </scstep>
  <structure>
   <crystal>
    <varray name="basis" >
     <v>      11.05202082       0.00000059       0.00000101 </v>
     <v>       0.00000029       5.44550997      -0.00000150 </v>
     <v>       0.00000049      -0.00000146       5.46594613 </v>
    </varray>
    <i name="volume">    328.96189810 </i>
    <varray name="rec_basis" >
     <v>       0.09048119      -0.00000000      -0.00000001 </v>
     <v>      -0.00000001       0.18363753       0.00000005 </v>
     <v>      -0.00000002       0.00000005       0.18295094 </v>
    </varray>
   </crystal>
   <varray name="positions" >
    <v>       0.00011929       0.00011938       0.25011811 </v>
    <v>       0.50012191       0.50012121       0.75012090 </v>
    <v>       0.50012204       0.50012079       0.25011882 </v>
    <v>       0.20802979       0.50012122       0.25011883 </v>
    <v>       0.79218784       0.50009989       0.25012023 </v>
    <v>       0.21117782       0.50009865       0.75012097 </v>
    <v>       0.78904017       0.50012198       0.75011867 </v>
    <v>       0.29024018       0.00011911       0.25011820 </v>
    <v>       0.70998078       0.00010068       0.25012056 </v>
    <v>       0.86517853       0.19641892      -0.00690769 </v>
    <v>       0.13504115       0.80379913      -0.00691064 </v>
    <v>       0.13504242       0.19642135       0.50713441 </v>
    <v>       0.86517924       0.80380101       0.50713164 </v>
    <v>       0.36534700       0.29962155      -0.00178778 </v>
    <v>       0.63487448       0.70059765      -0.00178334 </v>
    <v>       0.63487431       0.29962095       0.50200530 </v>
    <v>       0.36534594       0.70059681       0.50200989 </v>
    <v>       0.00011668       0.00011922       0.75011740 </v>
    <v>       0.28532122       0.00010199       0.75011834 </v>
    <v>       0.71489921       0.00011850       0.75011720 </v>
   </varray>
  </structure>
  <varray name="forces" >
   <v>       0.00058550      -0.00004192      -0.00010363 </v>
   <v>      -0.00092617       0.00009684      -0.00012310 </v>
   <v>      -0.00141722       0.00011233      -0.00019268 </v>
   <v>      -0.82959461       0.00008804      -0.00021326 </v>
   <v>       0.83006691      -0.00002321      -0.00005739 </v>
   <v>       0.03779895      -0.00012866       0.00010474 </v>
   <v>      -0.03740773       0.00023583      -0.00016675 </v>
   <v>       0.38579431       0.00001610      -0.00016480 </v>
   <v>      -0.38562622      -0.00003307       0.00008607 </v>
   <v>       0.43374175      -0.45222083      -0.86089130 </v>
   <v>      -0.43364927       0.44970156      -0.85964835 </v>
   <v>      -0.43350151      -0.44953907       0.85993478 </v>
   <v>       0.43402603       0.45228664       0.86112432 </v>
   <v>       0.14686074      -0.61879788      -0.37594456 </v>
   <v>      -0.14653111       0.62139076      -0.37706873 </v>
   <v>      -0.14672197      -0.62132025       0.37762813 </v>
   <v>       0.14656259       0.61872414       0.37651531 </v>
   <v>      -0.00041203      -0.00022794      -0.00020896 </v>
   <v>      -0.68094503      -0.00000205      -0.00025850 </v>
   <v>       0.68129608      -0.00031734      -0.00035133 </v>
  </varray>
  <varray name="stress" >
   <v>     -40.29627691      -0.00058560       0.00107360 </v>
   <v>      -0.00058547     -43.60033837       0.02352424 </v>
   <v>       0.00107372       0.02352428      31.03808986 </v>
  </varray>
  <energy>
   <i name="e_fr_energy">   -150.67362721 </i>
   <i name="e_wo_entrp">   -150.58085227 </i>
   <i name="e_0_energy">     -0.18554988 </i>
  </energy>
  <time name="totalsc">   18.29   18.32</time>
 </calculation>
 <calculation>
  <scstep>
   <time name="dav">    0.68    0.68</time>
   <time name="total">    0.75    0.75</time>
   <energy>
    <i name="alphaZ">    435.74451653 </i>
    <i name="ewald">  -4474.38737923 </i>
    <i name="hartreedc">  -1110.31919120 </i>
    <i name="XCdc">   -775.52488738 </i>
    <i name="pawpsdc">   7583.64598783 </i>
    <i name="pawaedc">  -6777.51884257 </i>
    <i name="eentropy">     -0.18694623 </i>
    <i name="bandstr">    280.38671011 </i>
    <i name="atom">   4687.48422623 </i>
    <i name="e_fr_energy">   -150.67580590 </i>
    <i name="e_wo_entrp">   -150.48885968 </i>
    <i name="e_0_energy">   -150.58233279 </i>
   </energy>
  </scstep>
  <scstep>
   <time name="dav">    1.13    1.13</time>
   <time name="total">    1.19    1.20</time>
   <energy>
    <i name="e_fr_energy">   -150.73481786 </i>
    <i name="e_wo_entrp">   -150.56177990 </i>
    <i name="e_0_energy">   -150.64829888 </i>
   </energy>
  </scstep>
  <scstep>
   <time name="dav">    1.10    1.11</time>
   <time name="total">    1.17    1.17</time>
   <energy>
    <i name="e_fr_energy">   -150.67313769 </i>
    <i name="e_wo_entrp">   -150.48725083 </i>
    <i name="e_0_energy">   -150.58019426 </i>
   </energy>
  </scstep>
  <scstep>
   <time name="dav">    0.95    0.95</time>
   <time name="total">    1.02    1.02</time>
   <energy>
    <i name="e_fr_energy">   -150.67540199 </i>
    <i name="e_wo_entrp">   -150.48910935 </i>
    <i name="e_0_energy">   -150.58225567 </i>
   </energy>
  </scstep>
  <scstep>
   <time name="dav">    0.99    1.00</time>
   <time name="total">    1.06    1.06</time>
   <energy>
    <i name="e_fr_energy">   -150.67423610 </i>
    <i name="e_wo_entrp">   -150.48856792 </i>
    <i name="e_0_energy">   -150.58140201 </i>
   </energy>
  </scstep>
  <scstep>
   <time name="dav">    0.99    0.99</time>
   <time name="total">    1.06    1.06</time>
   <energy>
    <i name="e_fr_energy">   -150.67424888 </i>
    <i name="e_wo_entrp">   -150.48883147 </i>
    <i name="e_0_energy">   -150.58154018 </i>
   </energy>
  </scstep>
  <scstep>
   <time name="dav">    1.07    1.07</time>
   <time name="total">    1.14    1.14</time>
   <energy>
    <i name="e_fr_energy">   -150.67417494 </i>
    <i name="e_wo_entrp">   -150.48874002 </i>
    <i name="e_0_energy">   -150.58145748 </i>
   </energy>
  </scstep>
  <scstep>
   <time name="dav">    0.99    0.99</time>
   <time name="total">    1.06    1.06</time>
   <energy>
    <i name="e_fr_energy">   -150.67416225 </i>
    <i name="e_wo_entrp">   -150.48874678 </i>
    <i name="e_0_energy">   -150.58145452 </i>
   </energy>
  </scstep>
  <scstep>
   <time name="dav">    0.81    0.81</time>
   <time name="total">    0.86    0.86</time>
   <energy>
    <i name="alphaZ">    435.74451653 </i>
    <i name="ewald">  -4474.38737923 </i>
    <i name="hartreedc">  -1109.22989002 </i>
    <i name="XCdc">   -775.55234719 </i>
    <i name="pawpsdc">   7593.87720158 </i>
    <i name="pawaedc">  -6787.79818210 </i>
    <i name="eentropy">     -0.18525448 </i>
    <i name="bandstr">    279.37294675 </i>
    <i name="atom">   4687.48422623 </i>
    <i name="e_fr_energy">   -150.67416193 </i>
    <i name="e_wo_entrp">   -150.48890745 </i>
    <i name="e_0_energy">   -150.58153469 </i>
   </energy>
  </scstep>
  <structure>
   <crystal>
    <varray name="basis" >
     <v>      11.04679022       0.00000058       0.00000101 </v>
     <v>       0.00000029       5.44318376      -0.00000149 </v>
     <v>       0.00000049      -0.00000145       5.46253938 </v>
    </varray>
    <i name="volume">    328.46090415 </i>
    <varray name="rec_basis" >
     <v>       0.09052403      -0.00000000      -0.00000001 </v>
     <v>      -0.00000001       0.18371601       0.00000005 </v>
     <v>      -0.00000002       0.00000005       0.18306504 </v>
    </varray>
   </crystal>
   <varray name="positions" >
    <v>       0.00011930       0.00011939       0.25011812 </v>
    <v>       0.50012190       0.50012120       0.75012090 </v>
    <v>       0.50012203       0.50012078       0.25011882 </v>
    <v>       0.20807711       0.50012121       0.25011884 </v>
    <v>       0.79214053       0.50009989       0.25012023 </v>
    <v>       0.21120828       0.50009866       0.75012096 </v>
    <v>       0.78900973       0.50012197       0.75011868 </v>
    <v>       0.29020334       0.00011911       0.25011821 </v>
    <v>       0.71001760       0.00010068       0.25012055 </v>
    <v>       0.86514299       0.19639340      -0.00687268 </v>
    <v>       0.13507670       0.80382465      -0.00687561 </v>
    <v>       0.13507796       0.19639582       0.50709936 </v>
    <v>       0.86514369       0.80382653       0.50709661 </v>
    <v>       0.36531056       0.29966976      -0.00177825 </v>
    <v>       0.63491091       0.70054944      -0.00177384 </v>
    <v>       0.63491075       0.29966917       0.50199578 </v>
    <v>       0.36530950       0.70054861       0.50200035 </v>
    <v>       0.00011669       0.00011922       0.75011741 </v>
    <v>       0.28531046       0.00010198       0.75011834 </v>
    <v>       0.71490997       0.00011851       0.75011721 </v>
   </varray>
  </structure>
  <varray name="forces" >
   <v>      -0.00030538       0.00000011      -0.00011129 </v>
   <v>      -0.00007923       0.00010012      -0.00011696 </v>
   <v>      -0.00039695       0.00013127      -0.00018589 </v>
   <v>      -0.83980506       0.00008325      -0.00019285 </v>
   <v>       0.83984994      -0.00002819      -0.00008526 </v>
   <v>       0.03037947      -0.00016521       0.00006041 </v>
   <v>      -0.03020193       0.00020943      -0.00011802 </v>
   <v>       0.39499827       0.00000505      -0.00012174 </v>
   <v>      -0.39453471      -0.00003960       0.00003951 </v>
   <v>       0.44136067      -0.44246241      -0.85770326 </v>
   <v>      -0.44259818       0.44215097      -0.85736290 </v>
   <v>      -0.44244743      -0.44198088       0.85763874 </v>
   <v>       0.44165728       0.44251741       0.85794280 </v>
   <v>       0.15956297      -0.61986547      -0.37573630 </v>
   <v>      -0.15851243       0.62133573      -0.37569878 </v>
   <v>      -0.15872130      -0.62127486       0.37628284 </v>
   <v>       0.15925850       0.61976431       0.37625803 </v>
   <v>      -0.00006972      -0.00018031      -0.00020508 </v>
   <v>      -0.67764129       0.00001506      -0.00022901 </v>
   <v>       0.67824650      -0.00031576      -0.00035500 </v>
  </varray>
  <varray name="stress" >
   <v>     -39.03362986      -0.00086505       0.00094211 </v>
   <v>      -0.00086504     -42.48931604      -0.00087043 </v>
   <v>       0.00094226      -0.00087038      32.84437346 </v>
  </varray>
  <energy>
   <i name="e_fr_energy">   -150.67416193 </i>
   <i name="e_wo_entrp">   -150.58153469 </i>
   <i name="e_0_energy">     -0.18525448 </i>
  </energy>
  <time name="totalsc">   10.73   10.75</time>
 </calculation>
 <calculation>
  <scstep>
   <time name="dav">    0.66    0.66</time>
   <time name="total">    0.73    0.73</time>
   <energy>
    <i name="alphaZ">    440.90255894 </i>
    <i name="ewald">  -4495.44739012 </i>
    <i name="hartreedc">  -1115.71850590 </i>
    <i name="XCdc">   -774.77621642 </i>
    <i name="pawpsdc">   7594.60644880 </i>
    <i name="pawaedc">  -6788.54987195 </i>
    <i name="eentropy">     -0.18389734 </i>
    <i name="bandstr">    300.09339244 </i>
    <i name="atom">   4687.48422623 </i>
    <i name="e_fr_energy">   -151.58925532 </i>
    <i name="e_wo_entrp">   -151.40535798 </i>
    <i name="e_0_energy">   -151.49730665 </i>
   </energy>
  </scstep>
  <scstep>
   <time name="dav">    1.12    1.12</time>
   <time name="total">    1.19    1.19</time>
   <energy>
    <i name="e_fr_energy">   -153.33982933 </i>
    <i name="e_wo_entrp">   -153.18298000 </i>
    <i name="e_0_energy">   -153.26140467 </i>
   </energy>
  </scstep>
  <scstep>
   <time name="dav">    1.01    1.01</time>
   <time name="total">    1.07    1.07</time>
   <energy>
    <i name="e_fr_energy">   -151.42325980 </i>
    <i name="e_wo_entrp">   -151.24626853 </i>
    <i name="e_0_energy">   -151.33476417 </i>
   </energy>
  </scstep>
  <scstep>
   <time name="dav">    0.95    0.95</time>
   <time name="total">    1.01    1.02</time>
   <energy>
    <i name="e_fr_energy">   -151.66960159 </i>
    <i name="e_wo_entrp">   -151.49889779 </i>
    <i name="e_0_energy">   -151.58424969 </i>
   </energy>
  </scstep>
  <scstep>
   <time name="dav">    1.08    1.08</time>
   <time name="total">    1.15    1.15</time>
   <energy>
    <i name="e_fr_energy">   -151.42972077 </i>
    <i name="e_wo_entrp">   -151.25972905 </i>
    <i name="e_0_energy">   -151.34472491 </i>
   </energy>
  </scstep>
  <scstep>
   <time name="dav">    1.10    1.11</time>
   <time name="total">    1.17    1.17</time>
   <energy>
    <i name="e_fr_energy">   -151.40745320 </i>
    <i name="e_wo_entrp">   -151.23398127 </i>
    <i name="e_0_energy">   -151.32071723 </i>
   </energy>
  </scstep>
  <scstep>
   <time name="dav">    1.15    1.15</time>
   <time name="total">    1.22    1.22</time>
   <energy>
    <i name="e_fr_energy">   -151.41343430 </i>
    <i name="e_wo_entrp">   -151.24258998 </i>
    <i name="e_0_energy">   -151.32801214 </i>
   </energy>
  </scstep>
  <scstep>
   <time name="dav">    1.15    1.15</time>
   <time name="total">    1.22    1.22</time>
   <energy>
    <i name="e_fr_energy">   -151.39307934 </i>
    <i name="e_wo_entrp">   -151.22189794 </i>
    <i name="e_0_energy">   -151.30748864 </i>
   </energy>
  </scstep>
  <scstep>
   <time name="dav">    1.01    1.01</time>
   <time name="total">    1.08    1.08</time>
   <energy>
    <i name="e_fr_energy">   -151.39375503 </i>
    <i name="e_wo_entrp">   -151.22159050 </i>
    <i name="e_0_energy">   -151.30767276 </i>
   </energy>
  </scstep>
  <scstep>
   <time name="dav">    1.03    1.03</time>
   <time name="total">    1.10    1.10</time>
   <energy>
    <i name="e_fr_energy">   -151.39247226 </i>
    <i name="e_wo_entrp">   -151.22021789 </i>
    <i name="e_0_energy">   -151.30634507 </i>
   </energy>
  </scstep>
  <scstep>
   <time name="dav">    1.09    1.09</time>
   <time name="total">    1.16    1.16</time>
   <energy>
    <i name="e_fr_energy">   -151.39242713 </i>
    <i name="e_wo_entrp">   -151.22027006 </i>
    <i name="e_0_energy">   -151.30634860 </i>
   </energy>
  </scstep>
  <scstep>
   <time name="dav">    1.13    1.13</time>
   <time name="total">    1.20    1.20</time>
   <energy>
    <i name="e_fr_energy">   -151.39239657 </i>
    <i name="e_wo_entrp">   -151.22065002 </i>
    <i name="e_0_energy">   -151.30652330 </i>
   </energy>
  </scstep>
  <scstep>
   <time name="dav">    1.11    1.11</time>
   <time name="total">    1.18    1.18</time>
   <energy>
    <i name="e_fr_energy">   -151.39225590 </i>
    <i name="e_wo_entrp">   -151.22019113 </i>
    <i name="e_0_energy">   -151.30622351 </i>
   </energy>
  </scstep>
  <scstep>
   <time name="dav">    1.09    1.10</time>
   <time name="total">    1.16    1.16</time>
   <energy>
    <i name="e_fr_energy">   -151.39228363 </i>
    <i name="e_wo_entrp">   -151.22016962 </i>
    <i name="e_0_energy">   -151.30622663 </i>
   </energy>
  </scstep>
  <scstep>
   <time name="dav">    0.83    0.83</time>
   <time name="total">    0.90    0.90</time>
   <energy>
[...]
       <r>    7.1665    0.0000 </r>
       <r>    7.3267    0.0000 </r>
       <r>    7.3472    0.0000 </r>
       <r>    7.3904    0.0000 </r>
       <r>    7.4036    0.0000 </r>
       <r>    7.5223    0.0000 </r>
       <r>    7.5467    0.0000 </r>
       <r>    7.7492    0.0000 </r>
      </set>
      <set comment="kpoint 4">
       <r>    1.1088    1.0000 </r>
       <r>    1.6378    1.0000 </r>
       <r>    2.1624    1.0000 </r>
       <r>    2.3752    1.0000 </r>
       <r>    2.5066    1.0000 </r>
       <r>    2.6588    1.0000 </r>
       <r>    2.7215    1.0000 </r>
       <r>    2.8798    1.0000 </r>
       <r>    3.0244    1.0000 </r>
       <r>    3.0548    1.0000 </r>
       <r>    3.1484    1.0000 </r>
       <r>    3.2377    1.0000 </r>
       <r>    3.3307    1.0000 </r>
       <r>    3.3413    1.0000 </r>
       <r>    3.4168    1.0000 </r>
       <r>    3.4855    1.0000 </r>
       <r>    3.5151    1.0000 </r>
       <r>    3.6338    1.0000 </r>
       <r>    3.7761    1.0000 </r>
       <r>    3.7909    1.0000 </r>
       <r>    3.9562    1.0000 </r>
       <r>    3.9678    1.0000 </r>
       <r>    4.0727    1.0000 </r>
       <r>    4.0780    1.0000 </r>
       <r>    4.1919    1.0000 </r>
       <r>    4.3009    1.0000 </r>
       <r>    4.3484    1.0000 </r>
       <r>    4.3508    1.0000 </r>
       <r>    4.3852    1.0000 </r>
       <r>    4.4417    1.0000 </r>
       <r>    4.5906    1.0000 </r>
       <r>    4.6677    1.0000 </r>
       <r>    4.7227    1.0000 </r>
       <r>    4.7557    1.0000 </r>
       <r>    4.7712    1.0000 </r>
       <r>    4.8636    1.0000 </r>
       <r>    4.9152    1.0000 </r>
       <r>    5.1542    1.0000 </r>
       <r>    5.2900    1.0000 </r>
       <r>    5.3239    1.0000 </r>
       <r>    5.3786    1.0000 </r>
       <r>    5.4197    1.0000 </r>
       <r>    5.4294    1.0000 </r>
       <r>    5.5476    1.0000 </r>
       <r>    5.5780    1.0000 </r>
       <r>    5.6689    1.0000 </r>
       <r>    5.8776    1.0000 </r>
       <r>    5.9190    1.0000 </r>
       <r>    6.0005    1.0000 </r>
       <r>    6.0078    1.0000 </r>
       <r>    6.1115    1.0000 </r>
       <r>    6.2973    0.9905 </r>
       <r>    6.3422    0.9563 </r>
       <r>    6.4092    0.7770 </r>
       <r>    6.5027    0.2877 </r>
       <r>    6.5650    0.0746 </r>
       <r>    6.6575    0.0030 </r>
       <r>    6.7084    0.0003 </r>
       <r>    6.8466    0.0000 </r>
       <r>    6.9409    0.0000 </r>
       <r>    7.0331    0.0000 </r>
       <r>    7.0447    0.0000 </r>
       <r>    7.0873    0.0000 </r>
       <r>    7.2434    0.0000 </r>
       <r>    7.4063    0.0000 </r>
       <r>    7.4710    0.0000 </r>
       <r>    7.5362    0.0000 </r>
       <r>    7.5501    0.0000 </r>
      </set>
     </set>
    </set>
   </array>
  </eigenvalues>
  <separator name="orbital magnetization" >
   <v name="MAGDIPOLOUT">      0.00000000      0.00000000      0.00000000</v>
  </separator>
  <dos>
   <i name="efermi">      6.46307563 </i>
   <total>
    <array>
     <dimension dim="1">gridpoints</dimension>
     <dimension dim="2">spin</dimension>
     <field>energy</field>
     <field>total</field>
     <field>integrated</field>
     <set>
      <set comment="spin 1">
       <r>    -1.4422     0.0000     0.0000 </r>
       <r>    -1.4082     0.0000     0.0000 </r>
       <r>    -1.3742     0.0000     0.0000 </r>
       <r>    -1.3402     0.0000     0.0000 </r>
       <r>    -1.3063     0.0000     0.0000 </r>
       <r>    -1.2723     0.0000     0.0000 </r>
       <r>    -1.2383     0.0000     0.0000 </r>
       <r>    -1.2044     0.0000     0.0000 </r>
       <r>    -1.1704     0.0000     0.0000 </r>
       <r>    -1.1364     0.0000     0.0000 </r>
       <r>    -1.1025     0.0000     0.0000 </r>
       <r>    -1.0685     0.0000     0.0000 </r>
       <r>    -1.0345     0.0000     0.0000 </r>
       <r>    -1.0005     0.0000     0.0000 </r>
       <r>    -0.9666     0.0000     0.0000 </r>
       <r>    -0.9326     0.0000     0.0000 </r>
       <r>    -0.8986     0.0000     0.0000 </r>
       <r>    -0.8647     0.0000     0.0000 </r>
       <r>    -0.8307     0.0000     0.0000 </r>
       <r>    -0.7967     0.0000     0.0000 </r>
       <r>    -0.7627     0.0000     0.0000 </r>
       <r>    -0.7288     0.0002     0.0000 </r>
       <r>    -0.6948     0.0015     0.0001 </r>
       <r>    -0.6608     0.0080     0.0003 </r>
       <r>    -0.6269     0.0344     0.0015 </r>
       <r>    -0.5929     0.1180     0.0055 </r>
       <r>    -0.5589     0.3222     0.0165 </r>
       <r>    -0.5249     0.7016     0.0403 </r>
       <r>    -0.4910     1.2182     0.0817 </r>
       <r>    -0.4570     1.6865     0.1390 </r>
       <r>    -0.4230     1.8619     0.2022 </r>
       <r>    -0.3891     1.6390     0.2579 </r>
       <r>    -0.3551     1.1506     0.2970 </r>
       <r>    -0.3211     0.6451     0.3189 </r>
       <r>    -0.2871     0.2946     0.3289 </r>
       <r>    -0.2532     0.1372     0.3336 </r>
       <r>    -0.2192     0.1627     0.3391 </r>
       <r>    -0.1852     0.4141     0.3532 </r>
       <r>    -0.1513     0.9915     0.3868 </r>
       <r>    -0.1173     1.9190     0.4520 </r>
       <r>    -0.0833     2.9643     0.5527 </r>
       <r>    -0.0493     3.6514     0.6768 </r>
       <r>    -0.0154     3.5866     0.7986 </r>
       <r>     0.0186     2.8092     0.8940 </r>
       <r>     0.0526     1.7545     0.9536 </r>
       <r>     0.0865     0.8737     0.9833 </r>
       <r>     0.1205     0.3469     0.9951 </r>
       <r>     0.1545     0.1098     0.9988 </r>
       <r>     0.1884     0.0277     0.9998 </r>
       <r>     0.2224     0.0056     1.0000 </r>
       <r>     0.2564     0.0009     1.0000 </r>
       <r>     0.2904     0.0001     1.0000 </r>
       <r>     0.3243     0.0000     1.0000 </r>
       <r>     0.3583     0.0000     1.0000 </r>
       <r>     0.3923     0.0000     1.0000 </r>
       <r>     0.4262     0.0000     1.0000 </r>
       <r>     0.4602     0.0000     1.0000 </r>
       <r>     0.4942     0.0000     1.0000 </r>
       <r>     0.5282     0.0000     1.0000 </r>
       <r>     0.5621     0.0000     1.0000 </r>
       <r>     0.5961     0.0001     1.0000 </r>
       <r>     0.6301     0.0010     1.0000 </r>
       <r>     0.6640     0.0054     1.0002 </r>
       <r>     0.6980     0.0247     1.0011 </r>
       <r>     0.7320     0.0894     1.0041 </r>
       <r>     0.7660     0.2579     1.0129 </r>
       <r>     0.7999     0.5934     1.0330 </r>
       <r>     0.8339     1.0891     1.0700 </r>
       <r>     0.8679     1.5975     1.1243 </r>
       <r>     0.9018     1.8870     1.1884 </r>
       <r>     0.9358     1.8540     1.2514 </r>
       <r>     0.9698     1.7056     1.3093 </r>
       <r>     1.0038     1.8984     1.3738 </r>
       <r>     1.0377     2.8305     1.4700 </r>
       <r>     1.0717     4.4737     1.6219 </r>
       <r>     1.1057     6.2141     1.8330 </r>
       <r>     1.1396     7.1441     2.0757 </r>
       <r>     1.1736     6.7164     2.3039 </r>
       <r>     1.2076     5.1973     2.4804 </r>
       <r>     1.2416     3.4440     2.5974 </r>
       <r>     1.2755     2.2391     2.6735 </r>
       <r>     1.3095     1.8135     2.7351 </r>
       <r>     1.3435     1.8663     2.7985 </r>
       <r>     1.3774     1.9193     2.8637 </r>
       <r>     1.4114     1.6913     2.9212 </r>
       <r>     1.4454     1.2443     2.9634 </r>
       <r>     1.4793     0.8610     2.9927 </r>
       <r>     1.5133     0.8315     3.0209 </r>
       <r>     1.5473     1.3111     3.0655 </r>
       <r>     1.5813     2.2248     3.1410 </r>
       <r>     1.6152     3.2031     3.2499 </r>
       <r>     1.6492     3.7154     3.3761 </r>
       <r>     1.6832     3.4422     3.4930 </r>
       <r>     1.7171     2.5436     3.5794 </r>
       <r>     1.7511     1.4988     3.6303 </r>
       <r>     1.7851     0.7043     3.6543 </r>
       <r>     1.8191     0.2652     3.6633 </r>
       <r>     1.8530     0.0866     3.6662 </r>
       <r>     1.8870     0.0531     3.6680 </r>
       <r>     1.9210     0.1243     3.6722 </r>
       <r>     1.9549     0.3440     3.6839 </r>
       <r>     1.9889     0.8007     3.7111 </r>
       <r>     2.0229     1.5570     3.7640 </r>
       <r>     2.0569     2.5868     3.8519 </r>
       <r>     2.0908     3.7722     3.9800 </r>
       <r>     2.1248     4.9397     4.1478 </r>
       <r>     2.1588     5.8910     4.3480 </r>
       <r>     2.1927     6.4621     4.5675 </r>
       <r>     2.2267     6.6440     4.7932 </r>
       <r>     2.2607     6.7016     5.0209 </r>
       <r>     2.2947     7.1833     5.2649 </r>
       <r>     2.3286     8.7103     5.5608 </r>
       <r>     2.3626    11.4889     5.9511 </r>
       <r>     2.3966    14.8520     6.4556 </r>
       <r>     2.4305    17.4352     7.0479 </r>
       <r>     2.4645    18.1143     7.6633 </r>
       <r>     2.4985    16.9312     8.2384 </r>
       <r>     2.5325    15.0909     8.7511 </r>
       <r>     2.5664    14.0016     9.2267 </r>
       <r>     2.6004    14.2465     9.7107 </r>
       <r>     2.6344    15.3527    10.2322 </r>
       <r>     2.6683    16.3575    10.7879 </r>
       <r>     2.7023    16.5026    11.3485 </r>
       <r>     2.7363    15.6264    11.8794 </r>
       <r>     2.7702    14.2919    12.3649 </r>
       <r>     2.8042    13.5364    12.8247 </r>
       <r>     2.8382    14.1286    13.3047 </r>
       <r>     2.8722    15.9382    13.8461 </r>
       <r>     2.9061    18.1824    14.4638 </r>
       <r>     2.9401    20.2009    15.1501 </r>
       <r>     2.9741    21.7339    15.8884 </r>
       <r>     3.0080    22.5956    16.6560 </r>
       <r>     3.0420    22.6163    17.4243 </r>
       <r>     3.0760    22.1199    18.1757 </r>
       <r>     3.1100    22.0756    18.9257 </r>
       <r>     3.1439    23.3568    19.7191 </r>
       <r>     3.1779    25.9004    20.5990 </r>
       <r>     3.2119    28.7673    21.5762 </r>
       <r>     3.2458    30.8834    22.6254 </r>
       <r>     3.2798    31.6220    23.6996 </r>
       <r>     3.3138    30.9817    24.7521 </r>
       <r>     3.3478    29.5794    25.7569 </r>
       <r>     3.3817    28.4581    26.7237 </r>
       <r>     3.4157    28.4992    27.6918 </r>
       <r>     3.4497    29.6345    28.6985 </r>
       <r>     3.4836    30.6645    29.7402 </r>
       <r>     3.5176    30.1645    30.7650 </r>
       <r>     3.5516    27.7399    31.7073 </r>
       <r>     3.5856    24.3479    32.5344 </r>
       <r>     3.6195    21.3784    33.2607 </r>
       <r>     3.6535    19.5563    33.9250 </r>
       <r>     3.6875    18.8133    34.5641 </r>
       <r>     3.7214    18.9521    35.2080 </r>
       <r>     3.7554    20.0073    35.8876 </r>
       <r>     3.7894    21.9360    36.6328 </r>
       <r>     3.8234    24.3019    37.4584 </r>
       <r>     3.8573    26.4186    38.3559 </r>
       <r>     3.8913    27.7580    39.2988 </r>
       <r>     3.9253    28.3627    40.2623 </r>
       <r>     3.9592    29.0204    41.2482 </r>
       <r>     3.9932    30.8424    42.2959 </r>
       <r>     4.0272    34.2862    43.4607 </r>
       <r>     4.0611    38.4558    44.7671 </r>
       <r>     4.0951    41.5241    46.1777 </r>
       <r>     4.1291    42.0113    47.6048 </r>
       <r>     4.1631    39.7452    48.9550 </r>
       <r>     4.1970    35.8557    50.1731 </r>
       <r>     4.2310    32.1166    51.2641 </r>
       <r>     4.2650    30.0259    52.2841 </r>
       <r>     4.2989    29.9191    53.3005 </r>
       <r>     4.3329    30.7976    54.3467 </r>
       <r>     4.3669    31.1983    55.4066 </r>
       <r>     4.4009    30.2330    56.4336 </r>
       <r>     4.4348    27.8243    57.3789 </r>
       <r>     4.4688    24.4028    58.2078 </r>
       <r>     4.5028    20.8151    58.9150 </r>
       <r>     4.5367    18.3103    59.5370 </r>
       <r>     4.5707    18.0856    60.1514 </r>
       <r>     4.6047    20.6255    60.8520 </r>
       <r>     4.6387    25.4111    61.7153 </r>
       <r>     4.6726    31.0335    62.7695 </r>
       <r>     4.7066    35.5853    63.9784 </r>
       <r>     4.7406    37.4613    65.2510 </r>
       <r>     4.7745    36.2932    66.4839 </r>
       <r>     4.8085    33.1576    67.6103 </r>
       <r>     4.8425    29.7148    68.6197 </r>
       <r>     4.8765    27.0229    69.5377 </r>
       <r>     4.9104    25.0362    70.3882 </r>
       <r>     4.9444    23.0972    71.1729 </r>
       <r>     4.9784    20.8888    71.8825 </r>
       <r>     5.0123    18.9461    72.5261 </r>
       <r>     5.0463    18.2444    73.1459 </r>
       <r>     5.0803    19.3066    73.8018 </r>
       <r>     5.1143    21.7485    74.5406 </r>
       <r>     5.1482    24.6631    75.3784 </r>
       <r>     5.1822    27.3733    76.3083 </r>
       <r>     5.2162    29.7444    77.3188 </r>
       <r>     5.2501    31.7907    78.3987 </r>
       <r>     5.2841    33.2616    79.5287 </r>
       <r>     5.3181    33.9337    80.6814 </r>
       <r>     5.3520    34.1440    81.8413 </r>
       <r>     5.3860    34.5255    83.0142 </r>
       <r>     5.4200    35.1730    84.2091 </r>
       <r>     5.4540    35.5511    85.4168 </r>
       <r>     5.4879    35.2748    86.6151 </r>
       <r>     5.5219    34.4157    87.7842 </r>
       <r>     5.5559    32.9714    88.9043 </r>
       <r>     5.5898    30.6731    89.9463 </r>
       <r>     5.6238    27.5480    90.8821 </r>
       <r>     5.6578    24.2212    91.7049 </r>
       <r>     5.6918    21.4181    92.4325 </r>
       <r>     5.7257    19.3870    93.0911 </r>
       <r>     5.7597    17.9694    93.7016 </r>
       <r>     5.7937    17.1170    94.2831 </r>
       <r>     5.8276    17.0802    94.8633 </r>
       <r>     5.8616    17.9431    95.4728 </r>
       <r>     5.8956    19.2047    96.1252 </r>
       <r>     5.9296    20.1920    96.8112 </r>
       <r>     5.9635    20.8133    97.5182 </r>
       <r>     5.9975    21.5661    98.2509 </r>
       <r>     6.0315    22.8120    99.0258 </r>
       <r>     6.0654    24.2144    99.8484 </r>
       <r>     6.0994    24.8827   100.6937 </r>
       <r>     6.1334    24.1898   101.5154 </r>
       <r>     6.1674    22.6216   102.2839 </r>
       <r>     6.2013    21.5474   103.0159 </r>
       <r>     6.2353    21.8170   103.7571 </r>
       <r>     6.2693    22.8466   104.5332 </r>
       <r>     6.3032    23.4412   105.3295 </r>
       <r>     6.3372    23.2433   106.1191 </r>
       <r>     6.3712    22.8982   106.8970 </r>
       <r>     6.4052    22.9328   107.6760 </r>
       <r>     6.4391    23.0185   108.4580 </r>
       <r>     6.4731    22.4734   109.2214 </r>
       <r>     6.5071    21.1617   109.9403 </r>
       <r>     6.5410    19.7123   110.6100 </r>
       <r>     6.5750    18.9317   111.2531 </r>
       <r>     6.6090    19.0288   111.8995 </r>
       <r>     6.6429    19.3796   112.5579 </r>
       <r>     6.6769    19.1057   113.2069 </r>
       <r>     6.7109    17.9459   113.8166 </r>
       <r>     6.7449    16.5781   114.3797 </r>
       <r>     6.7788    16.1047   114.9268 </r>
       <r>     6.8128    17.1671   115.5100 </r>
       <r>     6.8468    19.4104   116.1694 </r>
       <r>     6.8807    21.7323   116.9077 </r>
       <r>     6.9147    23.1025   117.6925 </r>
       <r>     6.9487    23.2549   118.4825 </r>
       <r>     6.9827    22.6826   119.2530 </r>
       <r>     7.0166    22.0018   120.0005 </r>
       <r>     7.0506    21.3944   120.7272 </r>
       <r>     7.0846    20.7546   121.4323 </r>
       <r>     7.1185    20.1897   122.1182 </r>
       <r>     7.1525    20.0464   122.7992 </r>
       <r>     7.1865    20.4606   123.4942 </r>
       <r>     7.2205    21.1608   124.2131 </r>
       <r>     7.2544    21.8149   124.9542 </r>
       <r>     7.2884    22.4504   125.7168 </r>
       <r>     7.3224    23.3832   126.5112 </r>
       <r>     7.3563    24.7112   127.3506 </r>
       <r>     7.3903    26.0984   128.2372 </r>
       <r>     7.4243    27.2772   129.1639 </r>
       <r>     7.4583    28.5126   130.1325 </r>
       <r>     7.4922    30.0156   131.1521 </r>
       <r>     7.5262    30.8822   132.2012 </r>
       <r>     7.5602    29.3587   133.1986 </r>
       <r>     7.5941    24.6500   134.0360 </r>
       <r>     7.6281    18.0752   134.6500 </r>
       <r>     7.6621    12.0280   135.0586 </r>
       <r>     7.6961     8.0362   135.3316 </r>
       <r>     7.7300     5.9954   135.5353 </r>
       <r>     7.7640     4.8765   135.7009 </r>
       <r>     7.7980     3.8062   135.8302 </r>
       <r>     7.8319     2.5769   135.9178 </r>
       <r>     7.8659     1.4415   135.9667 </r>
       <r>     7.8999     0.6529   135.9889 </r>
       <r>     7.9338     0.2375   135.9970 </r>
       <r>     7.9678     0.0691   135.9993 </r>
       <r>     8.0018     0.0160   135.9999 </r>
       <r>     8.0358     0.0030   136.0000 </r>
       <r>     8.0697     0.0004   136.0000 </r>
       <r>     8.1037     0.0001   136.0000 </r>
       <r>     8.1377     0.0000   136.0000 </r>
       <r>     8.1716     0.0000   136.0000 </r>
       <r>     8.2056     0.0000   136.0000 </r>
       <r>     8.2396     0.0000   136.0000 </r>
       <r>     8.2736     0.0000   136.0000 </r>
       <r>     8.3075     0.0000   136.0000 </r>
       <r>     8.3415     0.0000   136.0000 </r>
       <r>     8.3755     0.0000   136.0000 </r>
       <r>     8.4094     0.0000   136.0000 </r>
       <r>     8.4434     0.0000   136.0000 </r>
       <r>     8.4774     0.0000   136.0000 </r>
       <r>     8.5114     0.0000   136.0000 </r>
       <r>     8.5453     0.0000   136.0000 </r>
       <r>     8.5793     0.0000   136.0000 </r>
       <r>     8.6133     0.0000   136.0000 </r>
       <r>     8.6472     0.0000   136.0000 </r>
       <r>     8.6812     0.0000   136.0000 </r>
       <r>     8.7152     0.0000   136.0000 </r>
       <r>     8.7492     0.0000   136.0000 </r>
      </set>
     </set>
    </array>
   </total>
  </dos>
 </calculation>
 <structure name="finalpos" >
  <crystal>
   <varray name="basis" >
    <v>       7.42053711      -0.00054414       0.00080724 </v>
    <v>      -0.00032869       5.12283964      -0.00003488 </v>
    <v>       0.00068282      -0.00002444       6.84257975 </v>
   </varray>
   <i name="volume">    260.11533949 </i>
   <varray name="rec_basis" >
    <v>       0.13476114       0.00000865      -0.00001345 </v>
    <v>       0.00001431       0.19520424       0.00000070 </v>
    <v>      -0.00001590       0.00000099       0.14614371 </v>
   </varray>
  </crystal>
  <varray name="positions" >
   <v>       0.00011736       0.00039274       0.25001287 </v>
   <v>       0.50010444       0.50017610       0.75017051 </v>
   <v>       0.50011395       0.50018193       0.25003922 </v>
   <v>       0.16169255       0.50005055       0.25003434 </v>
   <v>       0.83852971       0.50007511       0.25012991 </v>
   <v>       0.16108009       0.50004362       0.75027196 </v>
   <v>       0.83913357       0.49995337       0.75003809 </v>
   <v>       0.33629394       0.00014038       0.25007072 </v>
   <v>       0.66394388       0.00007836       0.25034806 </v>
   <v>       0.84461769       0.21380480      -0.01718241 </v>
   <v>       0.15521065       0.78649526      -0.01710506 </v>
   <v>       0.15534587       0.21385292       0.51749211 </v>
   <v>       0.84526118       0.78647251       0.51739379 </v>
   <v>       0.41648433       0.23952795      -0.00153025 </v>
   <v>       0.58429914       0.76085682      -0.00161049 </v>
   <v>       0.58362339       0.23972228       0.50179135 </v>
   <v>       0.41604633       0.76059578       0.50185725 </v>
   <v>       0.00011836       0.00001250       0.75021750 </v>
   <v>       0.33432411       0.00007034       0.75027877 </v>
   <v>       0.66589944      -0.00026333       0.74960174 </v>
  </varray>
 </structure>
</modeling>
