unknown system                          
           1
    10.264825    0.000000    0.000000
     0.000000    5.095419    0.000000
     0.000000    0.000000    4.953236
   V    Fe
  17   3
Direct configuration=     1
   0.00012000  0.00012000  0.25012000
   0.50012000  0.50012000  0.75012000
   0.50012000  0.50012000  0.25012000
   0.21692000  0.50012000  0.25012000
   0.78330000  0.50010000  0.25012000
   0.21690000  0.50010000  0.75012000
   0.78332000  0.50012000  0.75012000
   0.28332000  0.00012000  0.25012000
   0.71690000  0.00010000  0.25012000
   0.85850000  0.19172000  0.00010000
   0.14172000  0.80850000  0.00010000
   0.14172000  0.19172000  0.50012000
   0.85850000  0.80850000  0.50012000
   0.35850000  0.30850000  0.00012000
   0.64172000  0.69172000  0.00012000
   0.64172000  0.30850000  0.50010000
   0.35850000  0.69172000  0.50010000
   0.00012000  0.00012000  0.75012000
   0.28330000  0.00010000  0.75012000
   0.71692000  0.00012000  0.75012000
unknown system                          
           1
    11.958638    0.000001    0.000002
     0.000001    5.848712   -0.000003
     0.000001   -0.000003    6.056437
   V    Fe
  17   3
Direct configuration=     2
   0.00011869  0.00011884  0.25011662
   0.50012354  0.50012227  0.75012161
   0.50012378  0.50012148  0.25011789
   0.20042158  0.50012229  0.25011792
   0.79979403  0.50009980  0.25012041
   0.20628080  0.50009747  0.75012173
   0.79393548  0.50012372  0.75011763
   0.29616245  0.00011832  0.25011678
   0.70405932  0.00010128  0.25012100
   0.87089400  0.20055055 -0.01241139
   0.12932542  0.79966577 -0.01241666
   0.12932776  0.20055514  0.51264339
   0.87089531  0.79966931  0.51263843
   0.37120664  0.29181496 -0.00328612
   0.62901610  0.70840353 -0.00327818
   0.62901579  0.29181384  0.50350168
   0.37120467  0.70840196  0.50350989
   0.00011383  0.00011853  0.75011535
   0.28705097  0.00010374  0.75011703
   0.71316983  0.00011719  0.75011499
unknown system                          
           1
    11.095351    0.000001    0.000001
     0.000000    5.464780   -0.000002
     0.000001   -0.000002    5.494168
   V    Fe
  17   3
Direct configuration=     3
   0.00011926  0.00011936  0.25011803
   0.50012199  0.50012126  0.75012094
   0.50012213  0.50012082  0.25011877
   0.20763933  0.50012127  0.25011879
   0.79257820  0.50009989  0.25012024
   0.21092650  0.50009859  0.75012101
   0.78929140  0.50012207  0.75011862
   0.29054412  0.00011907  0.25011813
   0.70967688  0.00010071  0.25012058
   0.86547186  0.19662955 -0.00719624
   0.13474782  0.80358841 -0.00719931
   0.13474914  0.19663209  0.50742323
   0.86547259  0.80359038  0.50742035
   0.36564772  0.29922357 -0.00186633
   0.63457382  0.70099559 -0.00186172
   0.63457365  0.29922294  0.50208375
   0.36564662  0.70099472  0.50208853
   0.00011653  0.00011918  0.75011729
   0.28540999  0.00010208  0.75011827
   0.71481046  0.00011844  0.75011708
unknown system                          
           1
    11.052021    0.000001    0.000001
     0.000000    5.445510   -0.000001
     0.000000   -0.000001    5.465946
   V    Fe
  17   3
Direct configuration=     4
   0.00011929  0.00011938  0.25011811
   0.50012191  0.50012121  0.75012090
   0.50012204  0.50012079  0.25011882
   0.20802979  0.50012122  0.25011883
   0.79218784  0.50009989  0.25012023
   0.21117782  0.50009865  0.75012097
   0.78904017  0.50012198  0.75011867
   0.29024018  0.00011911  0.25011820
   0.70998078  0.00010068  0.25012056
   0.86517853  0.19641892 -0.00690769
   0.13504115  0.80379913 -0.00691064
   0.13504242  0.19642135  0.50713441
   0.86517924  0.80380101  0.50713164
   0.36534700  0.29962155 -0.00178778
   0.63487448  0.70059765 -0.00178334
   0.63487431  0.29962095  0.50200530
   0.36534594  0.70059681  0.50200989
   0.00011668  0.00011922  0.75011740
   0.28532122  0.00010199  0.75011834
   0.71489921  0.00011850  0.75011720
unknown system                          
           1
    11.046790    0.000001    0.000001
     0.000000    5.443184   -0.000001
     0.000000   -0.000001    5.462539
   V    Fe
  17   3
Direct configuration=     5
   0.00011930  0.00011939  0.25011812
   0.50012190  0.50012120  0.75012090
   0.50012203  0.50012078  0.25011882
   0.20807711  0.50012121  0.25011884
   0.79214053  0.50009989  0.25012023
   0.21120828  0.50009866  0.75012096
   0.78900973  0.50012197  0.75011868
   0.29020334  0.00011911  0.25011821
   0.71001760  0.00010068  0.25012055
   0.86514299  0.19639340 -0.00687268
   0.13507670  0.80382465 -0.00687561
   0.13507796  0.19639582  0.50709936
   0.86514369  0.80382653  0.50709661
   0.36531056  0.29966976 -0.00177825
   0.63491091  0.70054944 -0.00177384
   0.63491075  0.29966917  0.50199578
   0.36530950  0.70054861  0.50200035
   0.00011669  0.00011922  0.75011741
   0.28531046  0.00010198  0.75011834
   0.71490997  0.00011851  0.75011721
unknown system                          
           1
    10.890942   -0.000004    0.000006
    -0.000002    5.356326   -0.000004
     0.000003   -0.000004    5.564685
   V    Fe
  17   3
Direct configuration=     6
   0.00011809  0.00011937  0.25011718
   0.50012165  0.50012203  0.75012001
   0.50012055  0.50012185  0.25011732
   0.20451494  0.50012191  0.25011729
   0.79570280  0.50009967  0.25011957
   0.21114032  0.50009731  0.75012147
   0.78907831  0.50012369  0.75011771
   0.29196798  0.00011912  0.25011719
   0.70825480  0.00010039  0.25012088
   0.86708043  0.19305021 -0.01384620
   0.13313443  0.80716531 -0.01384654
   0.13313632  0.19305653  0.51407258
   0.86708230  0.80717015  0.51407214
   0.36615534  0.29447247 -0.00479763
   0.63407027  0.70575833 -0.00479278
   0.63406929  0.29446071  0.50501939
   0.36615306  0.70574505  0.50502391
   0.00011631  0.00011777  0.75011572
   0.28273557  0.00010217  0.75011649
   0.71748723  0.00011597  0.75011433
unknown system                          
           1
    10.564504   -0.000012    0.000015
    -0.000006    5.174394   -0.000008
     0.000008   -0.000008    5.778637
   V    Fe
  17   3
Direct configuration=     7
   0.00011551  0.00011933  0.25011526
   0.50012113  0.50012380  0.75011817
   0.50011740  0.50012411  0.25011423
   0.19694688  0.50012339  0.25011410
   0.80327107  0.50009919  0.25011819
   0.21099593  0.50009443  0.75012251
   0.78922403  0.50012736  0.75011571
   0.29571707  0.00011915  0.25011511
   0.70450962  0.00009977  0.25012156
   0.87119664  0.18593404 -0.02818478
   0.12900795  0.81427609 -0.02817977
   0.12901116  0.18594864  0.52841052
   0.87120102  0.81428725  0.52841483
   0.36795013  0.28340973 -0.01100592
   0.63228428  0.71684575 -0.01100017
   0.63228155  0.28337421  0.51123636
   0.36794526  0.71680597  0.51124078
   0.00011551  0.00011468  0.75011223
   0.27726504  0.00010256  0.75011268
   0.72296280  0.00011055  0.75010839
unknown system                          
           1
    10.398691   -0.000025    0.000022
    -0.000012    5.123896   -0.000018
     0.000011   -0.000018    5.922667
   V    Fe
  17   3
Direct configuration=     8
   0.00011914  0.00011941  0.25011542
   0.50012206  0.50012535  0.75011734
   0.50011796  0.50012457  0.25011423
   0.19327548  0.50012412  0.25011265
   0.80694222  0.50009856  0.25011842
   0.21063832  0.50009347  0.75012441
   0.78958182  0.50012821  0.75011413
   0.29735419  0.00011906  0.25011451
   0.70287227  0.00010004  0.25012244
   0.87207252  0.18643558 -0.02609280
   0.12813166  0.81376909 -0.02608919
   0.12813557  0.18645653  0.52631894
   0.87207831  0.81378426  0.52632240
   0.36910020  0.27716953 -0.01114733
   0.63113186  0.72309015 -0.01113992
   0.63112813  0.27713016  0.51137858
   0.36909380  0.72304423  0.51138241
   0.00011846  0.00011396  0.75011339
   0.27691013  0.00010346  0.75011324
   0.72331591  0.00011024  0.75010674
unknown system                          
           1
     9.901251   -0.000063    0.000041
    -0.000031    4.972402   -0.000046
     0.000020   -0.000049    6.354757
   V    Fe
  17   3
Direct configuration=     9
   0.00013020  0.00011965  0.25011588
   0.50012490  0.50013003  0.75011492
   0.50011967  0.50012596  0.25011423
   0.18208565  0.50012631  0.25010845
   0.81813126  0.50009670  0.25011909
   0.20954838  0.50009057  0.75012996
   0.79067230  0.50013080  0.75010950
   0.30234386  0.00011879  0.25011275
   0.69788188  0.00010086  0.25012502
   0.87474205  0.18795507 -0.01996948
   0.12546086  0.81223311 -0.01996997
   0.12546692  0.18799519  0.52019681
   0.87475214  0.81226040  0.52019774
   0.37260539  0.25826442 -0.01156129
   0.62761949  0.74200797 -0.01154897
   0.62761268  0.25821340  0.51179481
   0.37259437  0.74194348  0.51179699
   0.00012745  0.00011180  0.75011678
   0.27582840  0.00010618  0.75011487
   0.72439215  0.00010932  0.75010191
unknown system                          
           1
     8.906371   -0.000138    0.000080
    -0.000067    4.669415   -0.000102
     0.000040   -0.000110    7.218936
   V    Fe
  17   3
Direct configuration=    10
   0.00015343  0.00012014  0.25011673
   0.50013087  0.50013969  0.75011040
   0.50012325  0.50012882  0.25011423
   0.15858165  0.50013064  0.25010068
   0.84163363  0.50009304  0.25012025
   0.20725899  0.50008456  0.75014033
   0.79296283  0.50013614  0.75010086
   0.31282456  0.00011833  0.25010945
   0.68739967  0.00010246  0.25012986
   0.88034934  0.19108674 -0.00855556
   0.11985089  0.80906757 -0.00856368
   0.11986148  0.19116617  0.50878511
   0.88036846  0.80911980  0.50878128
   0.37996791  0.21930229 -0.01233310
   0.62024190  0.78099627 -0.01231124
   0.62022848  0.21922715  0.51257053
   0.37994731  0.78089365  0.51256994
   0.00014635  0.00010734  0.75012310
   0.27355625  0.00011177  0.75011791
   0.72665276  0.00010743  0.75009291
unknown system                          
           1
     9.556928   -0.000089    0.000055
    -0.000043    4.867540   -0.000065
     0.000027   -0.000070    6.653845
   V    Fe
  17   3
Direct configuration=    11
   0.00013654  0.00011980  0.25011624
   0.50012653  0.50013297  0.75011300
   0.50012065  0.50012683  0.25011423
   0.17566786  0.50012792  0.25010505
   0.82454860  0.50009529  0.25011968
   0.20892326  0.50008877  0.75013435
   0.79129773  0.50013239  0.75010584
   0.30520562  0.00011852  0.25011140
   0.69501970  0.00010148  0.25012703
   0.87627313  0.18890590 -0.01512570
   0.12392908  0.81127184 -0.01512945
   0.12393633  0.18895825  0.51535394
   0.87628568  0.81130672  0.51535293
   0.37461585  0.24643291 -0.01188857
   0.62560492  0.75384743 -0.01187271
   0.62559654  0.24637475  0.51212420
   0.37460198  0.75377117  0.51212482
   0.00013261  0.00011045  0.75011946
   0.27520798  0.00010790  0.75011615
   0.72500941  0.00010872  0.75009810
unknown system                          
           1
     9.404642   -0.000100    0.000061
    -0.000049    4.821161   -0.000074
     0.000030   -0.000079    6.786125
   V    Fe
  17   3
Direct configuration=    12
   0.00014023  0.00011987  0.25011636
   0.50012748  0.50013448  0.75011234
   0.50012122  0.50012727  0.25011423
   0.17194047  0.50012858  0.25010392
   0.82827573  0.50009474  0.25011984
   0.20856020  0.50008783  0.75013587
   0.79166098  0.50013323  0.75010458
   0.30686771  0.00011846  0.25011091
   0.69335738  0.00010172  0.25012774
   0.87716236  0.18939560 -0.01345710
   0.12303942  0.81077685 -0.01346196
   0.12304739  0.18945408  0.51368567
   0.87717634  0.81081563  0.51368396
   0.37578343  0.24034049 -0.01200142
   0.62443495  0.75994395 -0.01198412
   0.62442550  0.24027854  0.51223758
   0.37576806  0.75986174  0.51223783
   0.00013561  0.00010975  0.75012039
   0.27484765  0.00010878  0.75011660
   0.72536791  0.00010842  0.75009678
unknown system                          
           1
     9.319726   -0.000106    0.000063
    -0.000052    4.794738   -0.000078
     0.000031   -0.000083    6.834775
   V    Fe
  17   3
Direct configuration=    13
   0.00014162  0.00012004  0.25011636
   0.50012791  0.50013535  0.75011223
   0.50012160  0.50012735  0.25011433
   0.17012789  0.50012865  0.25010337
   0.83008825  0.50009459  0.25011988
   0.20815262  0.50008750  0.75013663
   0.79206874  0.50013342  0.75010404
   0.30793515  0.00011863  0.25011074
   0.69229003  0.00010185  0.25012811
   0.87752632  0.18976813 -0.01252472
   0.12267513  0.81040177 -0.01252969
   0.12268352  0.18982954  0.51275316
   0.87754118  0.81044246  0.51275127
   0.37635269  0.23772413 -0.01187590
   0.62386470  0.76256235 -0.01185846
   0.62385456  0.23766035  0.51211248
   0.37633640  0.76247716  0.51211212
   0.00013638  0.00010955  0.75012077
   0.27490196  0.00010903  0.75011677
   0.72531336  0.00010817  0.75009650
unknown system                          
           1
     9.064980   -0.000123    0.000071
    -0.000060    4.715470   -0.000089
     0.000035   -0.000096    6.980726
   V    Fe
  17   3
Direct configuration=    14
   0.00014585  0.00012056  0.25011633
   0.50012921  0.50013798  0.75011189
   0.50012278  0.50012760  0.25011460
   0.16464059  0.50012885  0.25010172
   0.83557535  0.50009415  0.25012000
   0.20691874  0.50008648  0.75013890
   0.79330318  0.50013398  0.75010242
   0.31116665  0.00011916  0.25011022
   0.68905882  0.00010224  0.25012922
   0.87862816  0.19089186 -0.00974746
   0.12157231  0.80927032 -0.00975277
   0.12158195  0.19096210  0.50997556
   0.87864567  0.80931680  0.50997311
   0.37807604  0.22983181 -0.01150202
   0.62213837  0.77046082 -0.01148413
   0.62212612  0.22976248  0.51173986
   0.37805696  0.77036669  0.51173767
   0.00013870  0.00010893  0.75012192
   0.27506636  0.00010979  0.75011730
   0.72514820  0.00010741  0.75009565
unknown system                          
           1
     8.555487   -0.000158    0.000088
    -0.000077    4.556933   -0.000111
     0.000044   -0.000120    7.272627
   V    Fe
  17   3
Direct configuration=    15
   0.00015453  0.00012160  0.25011629
   0.50013188  0.50014334  0.75011123
   0.50012520  0.50012809  0.25011513
   0.15335759  0.50012920  0.25009850
   0.84685794  0.50009331  0.25012022
   0.20438164  0.50008440  0.75014336
   0.79584143  0.50013514  0.75009926
   0.31781129  0.00012026  0.25010919
   0.68241478  0.00010302  0.25013140
   0.88089376  0.19317713 -0.00430909
   0.11930469  0.80696937 -0.00431506
   0.11931692  0.19326529  0.50453651
   0.88091673  0.80702763  0.50453297
   0.38161958  0.21378183 -0.01076993
   0.61858869  0.78652330 -0.01075111
   0.61857207  0.21370121  0.51101017
   0.38159480  0.78641100  0.51100446
   0.00014347  0.00010769  0.75012417
   0.27540439  0.00011134  0.75011833
   0.72480861  0.00010587  0.75009398
unknown system                          
           1
     8.963295   -0.000130    0.000075
    -0.000063    4.683829   -0.000093
     0.000037   -0.000100    7.038984
   V    Fe
  17   3
Direct configuration=    16
   0.00014717  0.00012074  0.25011632
   0.50012961  0.50013890  0.75011174
   0.50012315  0.50012768  0.25011472
   0.16292654  0.50012899  0.25010095
   0.83728934  0.50009392  0.25012008
   0.20653332  0.50008614  0.75013993
   0.79368878  0.50013416  0.75010170
   0.31217607  0.00011929  0.25011000
   0.68804949  0.00010243  0.25012971
   0.87897234  0.19128428 -0.00848735
   0.12122783  0.80887516 -0.00849281
   0.12123785  0.19135767  0.50871528
   0.87899068  0.80892367  0.50871260
   0.37861439  0.22707545 -0.01133233
   0.62159909  0.77321932 -0.01131434
   0.62158623  0.22700424  0.51157082
   0.37859438  0.77312202  0.51156774
   0.00013942  0.00010872  0.75012244
   0.27511771  0.00011005  0.75011754
   0.72509661  0.00010715  0.75009526
unknown system                          
           1
     8.911816   -0.000132    0.000075
    -0.000064    4.668003   -0.000097
     0.000037   -0.000107    6.999907
   V    Fe
  17   3
Direct configuration=    17
   0.00014633  0.00012097  0.25011621
   0.50012935  0.50013950  0.75011210
   0.50012327  0.50012726  0.25011500
   0.16236157  0.50012829  0.25010076
   0.83785474  0.50009419  0.25012011
   0.20583959  0.50008615  0.75014038
   0.79438309  0.50013388  0.75010167
   0.31316783  0.00011966  0.25011018
   0.68705895  0.00010257  0.25012992
   0.87897211  0.19169923 -0.00810755
   0.12122782  0.80845992 -0.00811354
   0.12123825  0.19177341  0.50833611
   0.87899105  0.80850855  0.50833250
   0.37893230  0.22658516 -0.01098223
   0.62128090  0.77370986 -0.01096470
   0.62126743  0.22651388  0.51122073
   0.37891158  0.77361189  0.51121698
   0.00013834  0.00010884  0.75012230
   0.27571395  0.00011000  0.75011739
   0.72450154  0.00010677  0.75009568
unknown system                          
           1
     8.758550   -0.000138    0.000076
    -0.000067    4.620885   -0.000110
     0.000038   -0.000127    6.883566
   V    Fe
  17   3
Direct configuration=    18
   0.00014384  0.00012165  0.25011587
   0.50012858  0.50014129  0.75011320
   0.50012363  0.50012602  0.25011583
   0.16066979  0.50012618  0.25010021
   0.83954779  0.50009500  0.25012018
   0.20376225  0.50008618  0.75014173
   0.79646218  0.50013307  0.75010159
   0.31613762  0.00012076  0.25011075
   0.68409282  0.00010298  0.25013056
   0.87897143  0.19293884 -0.00697046
   0.12122776  0.80721943 -0.00697804
   0.12123945  0.19301537  0.50720091
   0.87899218  0.80726844  0.50719451
   0.37988428  0.22512049 -0.00993408
   0.62032811  0.77517528 -0.00991790
   0.62031279  0.22504900  0.51017259
   0.37986143  0.77507532  0.51016681
   0.00013511  0.00010921  0.75012187
   0.27749936  0.00010985  0.75011693
   0.72271960  0.00010564  0.75009693
unknown system                          
           1
     8.452019   -0.000150    0.000077
    -0.000072    4.526650   -0.000134
     0.000040   -0.000167    6.650884
   V    Fe
  17   3
Direct configuration=    19
   0.00013877  0.00012304  0.25011518
   0.50012700  0.50014491  0.75011543
   0.50012437  0.50012351  0.25011752
   0.15722702  0.50012191  0.25009909
   0.84299315  0.50009664  0.25012034
   0.19953486  0.50008623  0.75014448
   0.80069314  0.50013142  0.75010143
   0.32218112  0.00012299  0.25011190
   0.67805675  0.00010379  0.25013184
   0.87897005  0.19544335 -0.00465785
   0.12122766  0.80471316 -0.00466867
   0.12124189  0.19552459  0.50489216
   0.87899447  0.80476292  0.50488005
   0.38182156  0.22216130 -0.00780235
   0.61838918  0.77813600 -0.00778892
   0.61837009  0.22208936  0.50804088
   0.38179436  0.77803202  0.50803100
   0.00012854  0.00010995  0.75012101
   0.28113267  0.00010957  0.75011600
   0.71909336  0.00010334  0.75009948
unknown system                          
           1
     8.642005   -0.000143    0.000076
    -0.000069    4.585056   -0.000119
     0.000039   -0.000142    6.795099
   V    Fe
  17   3
Direct configuration=    20
   0.00014203  0.00012216  0.25011563
   0.50012802  0.50014262  0.75011400
   0.50012390  0.50012510  0.25011644
   0.15943821  0.50012462  0.25009981
   0.84078029  0.50009559  0.25012024
   0.20224999  0.50008621  0.75014272
   0.79797572  0.50013245  0.75010153
   0.31829955  0.00012156  0.25011116
   0.68193355  0.00010329  0.25013101
   0.87897094  0.19385874 -0.00614134
   0.12122773  0.80629886 -0.00615007
   0.12124032  0.19393703  0.50637317
   0.87899300  0.80634817  0.50636473
   0.38057731  0.22403355 -0.00916980
   0.61963450  0.77626275 -0.00915462
   0.61961783  0.22396193  0.50940833
   0.38055289  0.77616134  0.50940107
   0.00013276  0.00010948  0.75012156
   0.27879909  0.00010974  0.75011660
   0.72142239  0.00010480  0.75009784
unknown system                          
           1
     8.620129   -0.000145    0.000078
    -0.000070    4.597960   -0.000125
     0.000040   -0.000151    6.781349
   V    Fe
  17   3
Direct configuration=    21
   0.00013928  0.00012278  0.25011514
   0.50012808  0.50014384  0.75011475
   0.50012437  0.50012380  0.25011703
   0.15911786  0.50012269  0.25009928
   0.84110116  0.50009654  0.25012013
   0.19989165  0.50008667  0.75014373
   0.80033490  0.50013154  0.75010153
   0.32075334  0.00012232  0.25011155
   0.67948230  0.00010342  0.25013122
   0.87876667  0.19551612 -0.00548975
   0.12143152  0.80464369 -0.00549807
   0.12144526  0.19559326  0.50572190
   0.87879026  0.80469027  0.50571286
   0.38126788  0.22425573 -0.00809174
   0.61894380  0.77603851 -0.00807756
   0.61892545  0.22418651  0.50833043
   0.38124169  0.77593778  0.50832135
   0.00012962  0.00011025  0.75012099
   0.28102444  0.00010988  0.75011607
   0.71920046  0.00010439  0.75009916
unknown system                          
           1
     8.554501   -0.000152    0.000083
    -0.000072    4.636669   -0.000141
     0.000044   -0.000177    6.740098
   V    Fe
  17   3
Direct configuration=    22
   0.00013103  0.00012461  0.25011368
   0.50012829  0.50014747  0.75011701
   0.50012581  0.50011991  0.25011883
   0.15815434  0.50011693  0.25009768
   0.84206622  0.50009936  0.25011982
   0.19279868  0.50008802  0.75014678
   0.80743040  0.50012882  0.75010153
   0.32813339  0.00012461  0.25011272
   0.67210992  0.00010379  0.25013185
   0.87815232  0.20047431 -0.00353101
   0.12204445  0.79969215 -0.00353811
   0.12206163  0.20054803  0.50376413
   0.87818049  0.79973051  0.50375329
   0.38334488  0.22492042 -0.00485101
   0.61686645  0.77536770 -0.00483981
   0.61684303  0.22485835  0.50509018
   0.38331335  0.77526898  0.50507561
   0.00012018  0.00011256  0.75011925
   0.28771741  0.00011031  0.75011448
   0.71251773  0.00010316  0.75010311
unknown system                          
           1
     8.423245   -0.000166    0.000092
    -0.000078    4.714088   -0.000174
     0.000052   -0.000230    6.657597
   V    Fe
  17   3
Direct configuration=    23
   0.00011441  0.00012825  0.25011074
   0.50012869  0.50015469  0.75012155
   0.50012870  0.50011220  0.25012244
   0.15621253  0.50010551  0.25009446
   0.84401114  0.50010497  0.25011918
   0.17850391  0.50009069  0.75015294
   0.82173027  0.50012343  0.75010150
   0.34300674  0.00012916  0.25011506
   0.65725203  0.00010452  0.25013312
   0.87691419  0.21030792  0.00041047
   0.12327970  0.78987175  0.00040578
   0.12330384  0.21037481  0.49982465
   0.87695159  0.78989378  0.49981014
   0.38753073  0.22623874  0.00167012
   0.61267986  0.77403729  0.00167532
   0.61264625  0.22619076  0.49857001
   0.38748845  0.77394252  0.49854440
   0.00010116  0.00011713  0.75011576
   0.30120604  0.00011117  0.75011128
   0.69904974  0.00010070  0.75011108
unknown system                          
           1
     8.381796   -0.000161    0.000112
    -0.000073    4.788192   -0.000126
     0.000066   -0.000164    6.747707
   V    Fe
  17   3
Direct configuration=    24
   0.00011363  0.00012719  0.25011163
   0.50013103  0.50015642  0.75012212
   0.50013393  0.50010981  0.25012189
   0.15792958  0.50010259  0.25009239
   0.84229022  0.50010497  0.25011963
   0.17319473  0.50009233  0.75015361
   0.82704197  0.50012125  0.75010245
   0.34399014  0.00012868  0.25011556
   0.65626674  0.00010507  0.25013579
   0.87552522  0.21270450 -0.00103706
   0.12466690  0.78750883 -0.00103361
   0.12469330  0.21274544  0.50126656
   0.87556644  0.78750077  0.50125586
   0.38864137  0.22995125  0.00081483
   0.61157052  0.77030986  0.00082110
   0.61153233  0.22991705  0.49942590
   0.38859192  0.77022424  0.49939763
   0.00010590  0.00011633  0.75011463
   0.30410286  0.00011206  0.75010895
   0.69615127  0.00010137  0.75011013
unknown system                          
           1
     8.344287   -0.000156    0.000129
    -0.000068    4.855252   -0.000084
     0.000079   -0.000104    6.829252
   V    Fe
  17   3
Direct configuration=    25
   0.00011293  0.00012625  0.25011243
   0.50013316  0.50015796  0.75012263
   0.50013869  0.50010768  0.25012139
   0.15949111  0.50009998  0.25009055
   0.84072517  0.50010497  0.25012004
   0.16836640  0.50009380  0.75015423
   0.83187257  0.50011930  0.75010329
   0.34488447  0.00012825  0.25011600
   0.65537069  0.00010556  0.25013819
   0.87426205  0.21483975 -0.00232952
   0.12592845  0.78540361 -0.00231879
   0.12595691  0.21485753  0.50255397
   0.87430675  0.78536871  0.50254671
   0.38965142  0.23325891  0.00005114
   0.61056166  0.76698892  0.00005842
   0.61051930  0.23323696  0.50019007
   0.38959544  0.76691143  0.50015948
   0.00011021  0.00011562  0.75011362
   0.30673730  0.00011285  0.75010686
   0.69351531  0.00010196  0.75010929
unknown system                          
           1
     8.216001   -0.000148    0.000148
    -0.000062    4.893263   -0.000034
     0.000093   -0.000035    6.827842
   V    Fe
  17   3
Direct configuration=    26
   0.00011384  0.00012500  0.25011341
   0.50013560  0.50016054  0.75012259
   0.50014450  0.50010582  0.25012005
   0.16155311  0.50009767  0.25008758
   0.83865827  0.50010434  0.25012078
   0.16347181  0.50009585  0.75015440
   0.83676837  0.50011706  0.75010395
   0.34475847  0.00012745  0.25011627
   0.65549688  0.00010469  0.25014097
   0.87250200  0.21617893 -0.00443869
   0.12768612  0.78409172 -0.00442110
   0.12771701  0.21617923  0.50465937
   0.87255093  0.78403449  0.50465363
   0.39048997  0.23716938 -0.00152760
   0.60972527  0.76307309 -0.00152043
   0.60967739  0.23715197  0.50177018
   0.39042493  0.76299359  0.50173722
   0.00011533  0.00011345  0.75011337
   0.30926288  0.00011327  0.75010543
   0.69098732  0.00010248  0.75010859
unknown system                          
           1
     7.831141   -0.000124    0.000204
    -0.000043    5.007297    0.000116
     0.000136    0.000173    6.823611
   V    Fe
  17   3
Direct configuration=    27
   0.00011662  0.00012128  0.25011636
   0.50014304  0.50016823  0.75012246
   0.50016222  0.50010026  0.25011603
   0.16783572  0.50009076  0.25007864
   0.83236073  0.50010248  0.25012300
   0.14855877  0.50010197  0.75015497
   0.85168509  0.50011037  0.75010591
   0.34437456  0.00012507  0.25011707
   0.65588134  0.00010209  0.25014932
   0.86713939  0.22016534 -0.01076751
   0.13304145  0.78018669 -0.01072931
   0.13307976  0.22011344  0.51097683
   0.86720124  0.78006286  0.51097575
   0.39304488  0.24880973 -0.00626489
   0.60717694  0.75141691 -0.00625785
   0.60711220  0.24880568  0.50651144
   0.39295225  0.75133131  0.50647150
   0.00013094  0.00010699  0.75011264
   0.31695794  0.00011453  0.75010114
   0.68328492  0.00010402  0.75010650
unknown system                          
           1
     7.789077   -0.000121    0.000211
    -0.000041    5.019760    0.000132
     0.000140    0.000196    6.823149
   V    Fe
  17   3
Direct configuration=    28
   0.00011694  0.00012088  0.25011668
   0.50014390  0.50016905  0.75012244
   0.50016425  0.50009967  0.25011559
   0.16855614  0.50009002  0.25007766
   0.83163860  0.50010228  0.25012324
   0.14684870  0.50010263  0.75015505
   0.85339558  0.50010965  0.75010611
   0.34433053  0.00012481  0.25011715
   0.65592542  0.00010181  0.25015023
   0.86652446  0.22059116 -0.01145967
   0.13365555  0.77976962 -0.01141921
   0.13369470  0.22053362  0.51166773
   0.86658779  0.77963862  0.51166719
   0.39333785  0.25005304 -0.00678301
   0.60688473  0.75017195 -0.00677593
   0.60681805  0.25005038  0.50702995
   0.39324205  0.75008565  0.50698929
   0.00013273  0.00010630  0.75011256
   0.31784033  0.00011466  0.75010067
   0.68240169  0.00010418  0.75010628
unknown system                          
           1
     7.659456   -0.000125    0.000234
    -0.000042    5.034101    0.000126
     0.000159    0.000189    6.801315
   V    Fe
  17   3
Direct configuration=    29
   0.00011768  0.00012664  0.25011722
   0.50014393  0.50017096  0.75012205
   0.50015654  0.50009925  0.25011321
   0.16821665  0.50009076  0.25007180
   0.83198197  0.50010096  0.25012552
   0.14966917  0.50010402  0.75015675
   0.85057339  0.50010939  0.75010299
   0.34335391  0.00012046  0.25011723
   0.65690443  0.00009915  0.25015090
   0.86405700  0.22013717 -0.01106984
   0.13611733  0.78021186 -0.01102770
   0.13615716  0.22009371  0.51128001
   0.86412542  0.78009213  0.51127848
   0.39382512  0.24979990 -0.00681444
   0.60640923  0.75043132 -0.00682092
   0.60633602  0.24979351  0.50707497
   0.39371886  0.75033424  0.50702400
   0.00012400  0.00010675  0.75011227
   0.32123515  0.00011622  0.75010071
   0.67901703  0.00010160  0.75010479
unknown system                          
           1
     7.476278   -0.000131    0.000266
    -0.000045    5.054366    0.000117
     0.000184    0.000179    6.770461
   V    Fe
  17   3
Direct configuration=    30
   0.00011875  0.00013476  0.25011799
   0.50014397  0.50017364  0.75012150
   0.50014545  0.50009866  0.25010985
   0.16772876  0.50009179  0.25006350
   0.83247544  0.50009909  0.25012874
   0.15372245  0.50010598  0.75015915
   0.84651764  0.50010903  0.75009859
   0.34195041  0.00011434  0.25011734
   0.65831136  0.00009540  0.25015183
   0.86051103  0.21949743 -0.01051717
   0.13965514  0.78083505 -0.01047267
   0.13969596  0.21947382  0.51073033
   0.86058676  0.78073118  0.51072742
   0.39452537  0.24944318 -0.00685899
   0.60572588  0.75079680 -0.00688469
   0.60564330  0.24943152  0.50713880
   0.39440408  0.75068455  0.50707320
   0.00011146  0.00010740  0.75011185
   0.32611385  0.00011841  0.75010077
   0.67415294  0.00009796  0.75010269
unknown system                          
           1
     7.418704   -0.000140    0.000300
    -0.000050    5.090857    0.000070
     0.000212    0.000116    6.822498
   V    Fe
  17   3
Direct configuration=    31
   0.00012161  0.00014121  0.25011846
   0.50014060  0.50017464  0.75012191
   0.50013669  0.50009802  0.25010835
   0.16661294  0.50009100  0.25005817
   0.83359740  0.50009711  0.25013010
   0.15728915  0.50010656  0.75016165
   0.84295320  0.50010813  0.75009595
   0.34073477  0.00011124  0.25011808
   0.65952905  0.00009374  0.25015157
   0.85810655  0.21957188 -0.00999268
   0.14205648  0.78074928 -0.00995504
   0.14209861  0.21956259  0.51021525
   0.85818886  0.78065604  0.51020444