 vasp.5.4.4.18Apr17-6-g9f103f2a35 (build Jul 11 2019 11:52:51) complex          
  
 executed on             LinuxIFC date 2023.11.29  16:52:22
 running on    4 total cores
 distrk:  each k-point on    4 cores,    1 groups
 distr:  one band on NCORES_PER_BAND=   1 cores,    4 groups


--------------------------------------------------------------------------------------------------------


 INCAR:
 POTCAR:    PAW_PBE V 08Apr2002                   
 POTCAR:    PAW_PBE Fe 06Sep2000                  
 POTCAR:    PAW_PBE V 08Apr2002                   
   VRHFIN =V: p6 d4 s1                                                          
   LEXCH  = PE                                                                  
   EATOM  =   170.8679 eV,   12.5584 Ry                                         
                                                                                
   TITEL  = PAW_PBE V 08Apr2002                                                 
   LULTRA =        F    use ultrasoft PP ?                                      
   IUNSCR =        1    unscreen: 0-lin 1-nonlin 2-no                           
   RPACOR =    2.000    partial core radius                                     
   POMASS =   50.941; ZVAL   =    5.000    mass and valenz                      
   RCORE  =    2.700    outmost cutoff radius                                   
   RWIGS  =    2.500; RWIGS  =    1.323    wigner-seitz radius (au A)           
   ENMAX  =  192.543; ENMIN  =  144.408 eV                                      
   RCLOC  =    1.779    cutoff for local pot                                    
   LCOR   =        T    correct aug charges                                     
   LPAW   =        T    paw PP                                                  
   EAUG   =  358.662                                                            
   DEXC   =    0.000                                                            
   RMAX   =    2.768    core radius for proj-oper                               
   RAUG   =    1.300    factor for augmentation sphere                          
   RDEP   =    2.762    radius for radial grids                                 
   RDEPT  =    2.240    core radius for aug-charge                              
                                                                                
   Atomic configuration                                                         
    9 entries                                                                   
     n  l   j            E        occ.                                          
     1  0  0.50     -5360.7193   2.0000                                         
     2  0  0.50      -598.4546   2.0000                                         
     2  1  1.50      -499.0155   6.0000                                         
     3  0  0.50       -66.5711   2.0000                                         
     3  1  1.50       -40.5282   6.0000                                         
     3  2  2.50        -2.4291   4.0000                                         
     4  0  0.50        -3.8743   1.0000                                         
     4  1  0.50        -2.7212   0.0000                                         
     4  3  2.50        -1.3606   0.0000                                         
   Description                                                                  
     l       E           TYP  RCUT    TYP  RCUT                                 
     2     -2.4290901     23  2.700                                             
     2     -3.7896727     23  2.700                                             
     0     -3.8742752     23  2.700                                             
     0     27.2116520     23  2.700                                             
     1     -2.7211652     23  2.700                                             
     1     27.2116520     23  2.700                                             
  local pseudopotential read in
  partial core-charges read in
  partial kinetic energy density read in
  atomic valenz-charges read in
  non local Contribution for L=           2  read in
    real space projection operators read in
  non local Contribution for L=           2  read in
    real space projection operators read in
  non local Contribution for L=           0  read in
    real space projection operators read in
  non local Contribution for L=           0  read in
    real space projection operators read in
  non local Contribution for L=           1  read in
    real space projection operators read in
  non local Contribution for L=           1  read in
    real space projection operators read in
    PAW grid and wavefunctions read in
 
   number of l-projection  operators is LMAX  =           6
   number of lm-projection operators is LMMAX =          18
 
 POTCAR:    PAW_PBE Fe 06Sep2000                  
   VRHFIN =Fe:  d7 s1                                                           
   LEXCH  = PE                                                                  
   EATOM  =   594.3153 eV,   43.6809 Ry                                         
                                                                                
   TITEL  = PAW_PBE Fe 06Sep2000                                                
   LULTRA =        F    use ultrasoft PP ?                                      
   IUNSCR =        1    unscreen: 0-lin 1-nonlin 2-no                           
   RPACOR =    2.000    partial core radius                                     
   POMASS =   55.847; ZVAL   =    8.000    mass and valenz                      
   RCORE  =    2.300    outmost cutoff radius                                   
   RWIGS  =    2.460; RWIGS  =    1.302    wigner-seitz radius (au A)           
   ENMAX  =  267.882; ENMIN  =  200.911 eV                                      
   RCLOC  =    1.701    cutoff for local pot                                    
   LCOR   =        T    correct aug charges                                     
   LPAW   =        T    paw PP                                                  
   EAUG   =  511.368                                                            
   DEXC   =    0.000                                                            
   RMAX   =    2.356    core radius for proj-oper                               
   RAUG   =    1.300    factor for augmentation sphere                          
   RDEP   =    2.442    radius for radial grids                                 
   RDEPT  =    1.890    core radius for aug-charge                              
                                                                                
   Atomic configuration                                                         
    9 entries                                                                   
     n  l   j            E        occ.                                          
     1  0  0.50     -6993.8440   2.0000                                         
     2  0  0.50      -814.6047   2.0000                                         
     2  1  1.50      -693.3689   6.0000                                         
     3  0  0.50       -89.4732   2.0000                                         
     3  1  1.50       -55.6373   6.0000                                         
     3  2  2.50        -3.8151   7.0000                                         
     4  0  0.50        -4.2551   1.0000                                         
     4  1  1.50        -3.4015   0.0000                                         
     4  3  2.50        -1.3606   0.0000                                         
   Description                                                                  
     l       E           TYP  RCUT    TYP  RCUT                                 
     2     -3.8151135     23  2.300                                             
     2     -5.1756961     23  2.300                                             
     0     -4.2550963     23  2.300                                             
     0      7.2035603     23  2.300                                             
     1     -2.7211652     23  2.300                                             
     1     18.4316424     23  2.300                                             
  local pseudopotential read in
  partial core-charges read in
  partial kinetic energy density read in
  atomic valenz-charges read in
  non local Contribution for L=           2  read in
    real space projection operators read in
  non local Contribution for L=           2  read in
    real space projection operators read in
  non local Contribution for L=           0  read in
    real space projection operators read in
  non local Contribution for L=           0  read in
    real space projection operators read in
  non local Contribution for L=           1  read in
    real space projection operators read in
  non local Contribution for L=           1  read in
    real space projection operators read in
    PAW grid and wavefunctions read in
 
   number of l-projection  operators is LMAX  =           6
   number of lm-projection operators is LMMAX =          18
 

 ----------------------------------------------------------------------------- 
|                                                                             |
|  ADVICE TO THIS USER RUNNING 'VASP/VAMP'   (HEAR YOUR MASTER'S VOICE ...):  |
|                                                                             |
|      You have a (more or less) 'large supercell' and for larger cells       |
|      it might be more efficient to use real space projection opertators     |
|      So try LREAL= Auto  in the INCAR   file.                               |
|      Mind:          For very  accurate calculation you might also keep the  |
|      reciprocal projection scheme          (i.e. LREAL=.FALSE.)             |
|                                                                             |
 ----------------------------------------------------------------------------- 

  PAW_PBE V 08Apr2002                   :
 energy of atom  1       EATOM= -170.8679
 kinetic energy error for atom=    0.0066 (will be added to EATOM!!)
  PAW_PBE Fe 06Sep2000                  :
 energy of atom  2       EATOM= -594.3153
 kinetic energy error for atom=    0.0346 (will be added to EATOM!!)
 
 
 POSCAR: EA0     6.601  9.336  4.278 90.00 90.00 
  positions in direct lattice
  No initial velocities read in
 exchange correlation table for  LEXCH =        8
   RHO(1)=    0.500       N(1)  =     2000
   RHO(2)=  100.500       N(2)  =     4000
 


--------------------------------------------------------------------------------------------------------


 ion  position               nearest neighbor table
   1  0.862  0.621  0.145-  19 2.44  17 2.51  17 2.51  14 2.53  14 2.53   8 2.53   3 2.59   4 2.60
                            18 2.79   5 2.96  10 3.12  10 3.12
   2  0.862  0.105  0.145-  18 2.39  12 2.49  12 2.49  13 2.53  13 2.53   5 2.53   6 2.62   7 2.66
                            19 2.79   8 2.93  10 3.11  10 3.11
   3  0.255  0.720  0.145-  18 2.43  14 2.47  14 2.47   4 2.52  16 2.55  16 2.55   1 2.59  19 2.66
                             7 2.76   8 2.91  20 3.10  20 3.10
   4  0.467  0.522  0.145-  17 2.49  17 2.49   3 2.52  11 2.52  11 2.52   5 2.54   1 2.60   8 2.68
                            19 2.80   6 3.00  16 3.15  16 3.15
   5  0.660  0.310  0.145-  15 2.52  15 2.52   9 2.53   9 2.53   2 2.53   4 2.54   6 2.64   8 2.65
                             7 2.89   1 2.96  12 3.16  12 3.16
   6  0.260  0.206  0.145-   7 2.46  13 2.49  13 2.49  15 2.51  15 2.51   8 2.53   2 2.62   5 2.64
                            18 2.82   4 3.00  20 3.14  20 3.14
   7  0.457  0.007  0.145-  19 2.44   6 2.46  20 2.46  20 2.46  12 2.55  12 2.55  18 2.64   2 2.66
                             3 2.76   5 2.89  16 3.09  16 3.09  15 3.16  15 3.16
   8  0.061  0.414  0.145-   9 2.50   9 2.50  11 2.52  11 2.52   6 2.53   1 2.53   5 2.65   4 2.68
                             3 2.91   2 2.93
   9  0.863  0.363  0.645-  17 2.50   8 2.50   8 2.50   5 2.53   5 2.53  13 2.55  11 2.64  15 2.67
                            12 2.87  14 2.97
  10  0.867  0.864  0.645-  14 2.39  12 2.46  18 2.47  18 2.47  19 2.53  19 2.53  16 2.63  20 2.66
                            13 2.80  17 2.87   2 3.11   2 3.11   1 3.12   1 3.12
  11  0.264  0.467  0.645-   4 2.52   4 2.52   8 2.52   8 2.52  15 2.53  14 2.53  17 2.62   9 2.64
                            16 2.89  13 2.95
  12  0.667  0.062  0.645-  10 2.46  15 2.48   2 2.49   2 2.49   7 2.55   7 2.55  20 2.61  13 2.62
                            16 2.81   9 2.87  19 3.14  19 3.14   5 3.16   5 3.16
  13  0.067  0.156  0.645-  20 2.45   6 2.49   6 2.49   2 2.53   2 2.53   9 2.55  15 2.58  12 2.62
                            10 2.80  11 2.95  18 3.11  18 3.11
  14  0.067  0.675  0.645-  10 2.39   3 2.47   3 2.47   1 2.53   1 2.53  11 2.53  16 2.62  17 2.67
                            20 2.77   9 2.97  18 3.10  18 3.10
  15  0.458  0.257  0.645-  12 2.48   6 2.51   6 2.51   5 2.52   5 2.52  11 2.53  13 2.58   9 2.67
                            20 2.80  17 2.94   7 3.16   7 3.16
  16  0.466  0.769  0.645-  20 2.40  19 2.49  19 2.49  17 2.50   3 2.55   3 2.55  14 2.62  10 2.63
                            12 2.81  11 2.89   7 3.09   7 3.09   4 3.15   4 3.15
  17  0.663  0.565  0.645-   4 2.49   4 2.49  16 2.50   9 2.50   1 2.51   1 2.51  11 2.62  14 2.67
                            10 2.87  15 2.94
  18  0.055  0.913  0.145-   2 2.39   3 2.43  10 2.47  10 2.47  20 2.56  20 2.56  19 2.59   7 2.64
                             1 2.79   6 2.82  14 3.10  14 3.10  13 3.11  13 3.11
  19  0.661  0.815  0.145-   7 2.44   1 2.44  16 2.49  16 2.49  10 2.53  10 2.53  18 2.59   3 2.66
                             2 2.79   4 2.80  12 3.14  12 3.14
  20  0.271  0.962  0.645-  16 2.40  13 2.45   7 2.46   7 2.46  18 2.56  18 2.56  12 2.61  10 2.66
                            14 2.77  15 2.80   3 3.10   3 3.10   6 3.14   6 3.14
 
  LATTYP: Found a triclinic cell.
 ALAT       =     7.8663416354
 B/A-ratio  =     1.5757428134
 C/A-ratio  =     0.5438768366
 COS(alpha) =     0.0000222550
 COS(beta)  =     0.5439141028
 COS(gamma) =     0.5643459831
  
  Lattice vectors:
  
 A1 = (   6.6011590000,   0.0000440000,  -4.2783210000)
 A2 = (   8.3360320000,  -9.1735930000,   0.0000000000)
 A3 = (   0.0001900000,   0.0000440000,  -4.2783210000)


Analysis of symmetry for initial positions (statically):
=====================================================================
 Subroutine PRICEL returns:
 Original cell was already a primitive cell.
 

 Routine SETGRP: Setting up the symmetry group for a 
 triclinic supercell.


 Subroutine GETGRP returns: Found  1 space group operations
 (whereof  1 operations were pure point group operations)
 out of a pool of  2 trial point group operations.


The static configuration has the point symmetry C_1 .


Analysis of symmetry for dynamics (positions and initial velocities):
=====================================================================
 Subroutine PRICEL returns:
 Original cell was already a primitive cell.
 

 Routine SETGRP: Setting up the symmetry group for a 
 triclinic supercell.


 Subroutine GETGRP returns: Found  1 space group operations
 (whereof  1 operations were pure point group operations)
 out of a pool of  2 trial point group operations.


The dynamic configuration has the point symmetry C_1 .


 Subroutine INISYM returns: Found  1 space group operations
 (whereof  1 operations are pure point group operations),
 and found     1 'primitive' translations

 
 
 KPOINTS: EA                                      

Automatic generation of k-mesh.
Space group operators:
 irot       det(A)        alpha          n_x          n_y          n_z        tau_x        tau_y        tau_z
    1     1.000000     0.000000     1.000000     0.000000     0.000000     0.000000     0.000000     0.000000
 
 Subroutine IBZKPT returns following result:
 ===========================================
 
 Found      8 irreducible k-points:
 
 Following reciprocal coordinates:
            Coordinates               Weight
  0.000000  0.000000  0.000000      1.000000
  0.500000 -0.000000 -0.000000      1.000000
  0.000000  0.500000 -0.000000      1.000000
  0.500000  0.500000 -0.000000      1.000000
  0.000000  0.000000  0.333333      2.000000
  0.500000 -0.000000  0.333333      2.000000
  0.000000  0.500000  0.333333      2.000000
  0.500000  0.500000  0.333333      2.000000
 
 Following cartesian coordinates:
            Coordinates               Weight
  0.000000  0.000000  0.000000      1.000000
  0.075746  0.014326  0.000004      1.000000
  0.000000  0.054504  0.000001      1.000000
  0.075746  0.068831  0.000004      1.000000
  0.000000  0.000000  0.077912      2.000000
  0.075746  0.014326  0.077916      2.000000
  0.000000  0.054504  0.077913      2.000000
  0.075746  0.068831  0.077916      2.000000
 


--------------------------------------------------------------------------------------------------------




 Dimension of arrays:
   k-points           NKPTS =      8   k-points in BZ     NKDIM =      8   number of bands    NBANDS=     68
   number of dos      NEDOS =    301   number of ions     NIONS =     20
   non local maximal  LDIM  =      6   non local SUM 2l+1 LMDIM =     18
   total plane-waves  NPLWV =  20160
   max r-space proj   IRMAX =      1   max aug-charges    IRDMAX=   4918
   dimension x,y,z NGX =    28 NGY =   40 NGZ =   18
   dimension x,y,z NGXF=    56 NGYF=   80 NGZF=   36
   support grid    NGXF=    56 NGYF=   80 NGZF=   36
   ions per type =              17   3
   NGX,Y,Z   is equivalent  to a cutoff of   7.05,  7.12,  6.99 a.u.
   NGXF,Y,Z  is equivalent  to a cutoff of  14.10, 14.25, 13.99 a.u.

 SYSTEM =  unknown system                          
 POSCAR =  EA0     6.601  9.336  4.278 90.00 90.00 

 Startparameter for this run:
   NWRITE =      2    write-flag & timer
   PREC   = normal    normal or accurate (medium, high low for compatibility)
   ISTART =      0    job   : 0-new  1-cont  2-samecut
   ICHARG =      2    charge: 1-file 2-atom 10-const
   ISPIN  =      1    spin polarized calculation?
   LNONCOLLINEAR =      F non collinear calculations
   LSORBIT =      F    spin-orbit coupling
   INIWAV =      1    electr: 0-lowe 1-rand  2-diag
   LASPH  =      F    aspherical Exc in radial PAW
   METAGGA=      F    non-selfconsistent MetaGGA calc.

 Electronic Relaxation 1
   ENCUT  =  267.9 eV  19.69 Ry    4.44 a.u.   8.81 12.46  5.71*2*pi/ulx,y,z
   ENINI  =  267.9     initial cutoff
   ENAUG  =  511.4 eV  augmentation charge cutoff
   NELM   =     60;   NELMIN=  2; NELMDL= -5     # of ELM steps 
   EDIFF  = 0.1E-04   stopping-criterion for ELM
   LREAL  =      F    real-space projection
   NLSPLINE    = F    spline interpolate recip. space projectors
   LCOMPAT=      F    compatible to vasp.4.4
   GGA_COMPAT  = T    GGA compatible to vasp.4.4-vasp.4.6
   LMAXPAW     = -100 max onsite density
   LMAXMIX     =    2 max onsite mixed and CHGCAR
   VOSKOWN=      0    Vosko Wilk Nusair interpolation
   ROPT   =    0.00000   0.00000
 Ionic relaxation
   EDIFFG = -.1E-01   stopping-criterion for IOM
   NSW    =    500    number of steps for IOM
   NBLOCK =      1;   KBLOCK =    500    inner block; outer block 
   IBRION =      2    ionic relax: 0-MD 1-quasi-New 2-CG
   NFREE  =      1    steps in history (QN), initial steepest desc. (CG)
   ISIF   =      3    stress and relaxation
   IWAVPR =     11    prediction:  0-non 1-charg 2-wave 3-comb
   ISYM   =      2    0-nonsym 1-usesym 2-fastsym
   LCORR  =      T    Harris-Foulkes like correction to forces

   POTIM  = 0.5000    time-step for ionic-motion
   TEIN   =    0.0    initial temperature
   TEBEG  =    0.0;   TEEND  =   0.0 temperature during run
   SMASS  =  -3.00    Nose mass-parameter (am)
   estimated Nose-frequenzy (Omega)   =  0.10E-29 period in steps =****** mass=  -0.996E-27a.u.
   SCALEE = 1.0000    scale energy and forces
   NPACO  =    256;   APACO  = 16.0  distance and # of slots for P.C.
   PSTRESS=    0.0 pullay stress

  Mass of Ions in am
   POMASS =  50.94 55.85
  Ionic Valenz
   ZVAL   =   5.00  8.00
  Atomic Wigner-Seitz radii
   RWIGS  =  -1.00 -1.00
  virtual crystal weights 
   VCA    =   1.00  1.00
   NELECT =     109.0000    total number of electrons
   NUPDOWN=      -1.0000    fix difference up-down

 DOS related values:
   EMIN   =  10.00;   EMAX   =-10.00  energy-range for DOS
   EFERMI =   0.00
   ISMEAR =     0;   SIGMA  =   0.10  broadening in eV -4-tet -1-fermi 0-gaus

 Electronic relaxation 2 (details)
   IALGO  =     38    algorithm
   LDIAG  =      T    sub-space diagonalisation (order eigenvalues)
   LSUBROT=      F    optimize rotation matrix (better conditioning)
   TURBO    =      0    0=normal 1=particle mesh
   IRESTART =      0    0=no restart 2=restart with 2 vectors
   NREBOOT  =      0    no. of reboots
   NMIN     =      0    reboot dimension
   EREF     =   0.00    reference energy to select bands
   IMIX   =      4    mixing-type and parameters
     AMIX     =   0.40;   BMIX     =  1.00
     AMIX_MAG =   1.60;   BMIX_MAG =  1.00
     AMIN     =   0.10
     WC   =   100.;   INIMIX=   1;  MIXPRE=   1;  MAXMIX= -45

 Intra band minimization:
   WEIMIN = 0.0010     energy-eigenvalue tresh-hold
   EBREAK =  0.37E-07  absolut break condition
   DEPER  =   0.30     relativ break condition  

   TIME   =   0.40     timestep for ELM

  volume/ion in A,a.u.               =      12.95        87.42
  Fermi-wavevector in a.u.,A,eV,Ry     =   1.226714  2.318154 20.474433  1.504828
  Thomas-Fermi vector in A             =   2.361705
 
 Write flags
   LWAVE        =      F    write WAVECAR
   LDOWNSAMPLE  =      F    k-point downsampling of WAVECAR
   LCHARG       =      F    write CHGCAR
   LVTOT        =      F    write LOCPOT, total local potential
   LVHAR        =      F    write LOCPOT, Hartree potential only
   LELF         =      F    write electronic localiz. function (ELF)
   LORBIT       =      0    0 simple, 1 ext, 2 COOP (PROOUT), +10 PAW based schemes


 Dipole corrections
   LMONO  =      F    monopole corrections only (constant potential shift)
   LDIPOL =      F    correct potential (dipole corrections)
   IDIPOL =      0    1-x, 2-y, 3-z, 4-all directions 
   EPSILON=  1.0000000 bulk dielectric constant

 Exchange correlation treatment:
   GGA     =    --    GGA type
   LEXCH   =     8    internal setting for exchange type
   VOSKOWN=      0    Vosko Wilk Nusair interpolation
   LHFCALC =     F    Hartree Fock is set to
   LHFONE  =     F    Hartree Fock one center treatment
   AEXX    =    0.0000 exact exchange contribution

 Linear response parameters
   LEPSILON=     F    determine dielectric tensor
   LRPA    =     F    only Hartree local field effects (RPA)
   LNABLA  =     F    use nabla operator in PAW spheres
   LVEL    =     F    velocity operator in full k-point grid
   LINTERFAST=   F  fast interpolation
   KINTER  =     0    interpolate to denser k-point grid
   CSHIFT  =0.1000    complex shift for real part using Kramers Kronig
   OMEGAMAX=  -1.0    maximum frequency
   DEG_THRESHOLD= 0.2000000E-02 threshold for treating states as degnerate
   RTIME   =   -0.100 relaxation time in fs
  (WPLASMAI=    0.000 imaginary part of plasma frequency in eV, 0.658/RTIME)
   DFIELD  = 0.0000000 0.0000000 0.0000000 field for delta impulse in time
 
 Orbital magnetization related:
   ORBITALMAG=     F  switch on orbital magnetization
   LCHIMAG   =     F  perturbation theory with respect to B field
   DQ        =  0.001000  dq finite difference perturbation B field
   LLRAUG    =     F  two centre corrections for induced B field



--------------------------------------------------------------------------------------------------------


 conjugate gradient relaxation of ions
 charge density and potential will be updated during run
 non-spin polarized calculation
 Variant of blocked Davidson
 Davidson routine will perform the subspace rotation
 perform sub-space diagonalisation
    after iterative eigenvector-optimisation
 modified Broyden-mixing scheme, WC =      100.0
 initial mixing is a Kerker type mixing with AMIX =  0.4000 and BMIX =      1.0000
 Hartree-type preconditioning will be used
 using additional bands           13
 reciprocal scheme for non local part
 use partial core corrections
 calculate Harris-corrections to forces 
   (improved forces if not selfconsistent)
 use gradient corrections 
 use of overlap-Matrix (Vanderbilt PP)
 Gauss-broadening in eV      SIGMA  =   0.10


--------------------------------------------------------------------------------------------------------


  energy-cutoff  :      267.88
  volume of cell :      259.07
      direct lattice vectors                 reciprocal lattice vectors
     6.600969000  0.000000000  0.000000000     0.151492910  0.028652867  0.000007022
    -1.735063000  9.173593000  0.000000000     0.000000000  0.109008542  0.000001121
    -0.000190000 -0.000044000  4.278321000     0.000000000  0.000000000  0.233736552

  length of vectors
     6.600969000  9.336233295  4.278321004     0.154178755  0.109008542  0.233736552


 
 k-points in units of 2pi/SCALE and weight: EA                                      
   0.00000000  0.00000000  0.00000000       0.083
   0.07574645  0.01432643  0.00000351       0.083
   0.00000000  0.05450427  0.00000056       0.083
   0.07574645  0.06883070  0.00000407       0.083
   0.00000000  0.00000000  0.07791218       0.167
   0.07574645  0.01432643  0.07791570       0.167
   0.00000000  0.05450427  0.07791274       0.167
   0.07574645  0.06883070  0.07791626       0.167
 
 k-points in reciprocal lattice and weights: EA                                      
   0.00000000  0.00000000  0.00000000       0.083
   0.50000000 -0.00000000 -0.00000000       0.083
   0.00000000  0.50000000 -0.00000000       0.083
   0.50000000  0.50000000 -0.00000000       0.083
   0.00000000  0.00000000  0.33333333       0.167
   0.50000000 -0.00000000  0.33333333       0.167
   0.00000000  0.50000000  0.33333333       0.167
   0.50000000  0.50000000  0.33333333       0.167
 
 position of ions in fractional coordinates (direct lattice) 
   0.86157000  0.62068600  0.14541900
   0.86201500  0.10541200  0.14545200
   0.25537500  0.71999800  0.14540400
   0.46651500  0.52155400  0.14542900
   0.65965000  0.31023000  0.14545100
   0.25996200  0.20648800  0.14546400
   0.45724000  0.00734100  0.14542000
   0.06117200  0.41372600  0.14544400
   0.86347400  0.36322900  0.64541900
   0.86679600  0.86436300  0.64537200
   0.26435600  0.46710900  0.64544200
   0.66741400  0.06196800  0.64538900
   0.06663500  0.15623300  0.64541100
   0.06681800  0.67526000  0.64537600
   0.45836200  0.25733000  0.64543000
   0.46608300  0.76929900  0.64537500
   0.66260700  0.56536300  0.64539200
   0.05527400  0.91338100  0.14534600
   0.66139000  0.81517800  0.14533700
   0.27139900  0.96234200  0.64530500
 
 position of ions in cartesian coordinates  (Angst):
   4.61023992  5.69391435  0.62214916
   5.50721020  0.96700039  0.62229035
   0.43645294  6.60496222  0.62208499
   2.17449437  4.78451772  0.62219194
   3.81603297  2.84591736  0.62228607
   1.35770378  1.89423047  0.62234169
   3.00546234  0.06733695  0.62215344
  -0.31407383  3.79534754  0.62225612
   5.06941728  3.33208661  2.76130966
   4.22184664  7.92928597  2.76110858
   0.93441958  4.28503945  2.76140806
   4.29793812  0.56844081  2.76118131
   0.16865884  1.43318956  2.76127543
  -0.73067772  6.19453201  2.76112569
   2.57902696  2.36061229  2.76135672
   1.74169458  7.05720752  2.76112142
   3.39278522  5.18638166  2.76119415
  -1.21993923  8.37897915  0.62183684
   2.95140209  7.47810480  0.62179834
   0.12164978  8.82810544  2.76082193
 


--------------------------------------------------------------------------------------------------------


 k-point  1 :   0.0000 0.0000 0.0000  plane waves:    2583
 k-point  2 :   0.5000-0.0000-0.0000  plane waves:    2580
 k-point  3 :   0.0000 0.5000-0.0000  plane waves:    2602
 k-point  4 :   0.5000 0.5000-0.0000  plane waves:    2564
 k-point  5 :   0.0000 0.0000 0.3333  plane waves:    2570
 k-point  6 :   0.5000-0.0000 0.3333  plane waves:    2590
 k-point  7 :   0.0000 0.5000 0.3333  plane waves:    2570
 k-point  8 :   0.5000 0.5000 0.3333  plane waves:    2578

 maximum and minimum number of plane-waves per node :      2602     2564

 maximum number of plane-waves:      2602
 maximum index in each direction: 
   IXMAX=    8   IYMAX=   12   IZMAX=    5
   IXMIN=   -9   IYMIN=  -12   IZMIN=   -6


 serial   3D FFT for wavefunctions
 parallel 3D FFT for charge:
    minimum data exchange during FFTs selected (reduces bandwidth)


 total amount of memory used by VASP MPI-rank0    48278. kBytes
=======================================================================

   base      :      30000. kBytes
   nonl-proj :       6832. kBytes
   fftplans  :       1515. kBytes
   grid      :       3171. kBytes
   one-center:        311. kBytes
   wavefun   :       6449. kBytes
 
     INWAV:  cpu time    0.0000: real time    0.0001
 Broyden mixing: mesh for mixing (old mesh)
   NGX = 17   NGY = 25   NGZ = 11
  (NGX  = 56   NGY  = 80   NGZ  = 36)
  gives a total of   4675 points

 initial charge density was supplied:
 charge density of overlapping atoms calculated
 number of electron     109.0000000 magnetization 
 keeping initial charge density in first step


--------------------------------------------------------------------------------------------------------


 Maximum index for augmentation-charges         1166 (set IRDMAX)


--------------------------------------------------------------------------------------------------------


 First call to EWALD:  gamma=   0.278
 Maximum number of real-space cells 3x 2x 4
 Maximum number of reciprocal cells 3x 4x 2

    FEWALD:  cpu time    0.0026: real time    0.0026


--------------------------------------- Iteration      1(   1)  ---------------------------------------


    POTLOK:  cpu time    0.0354: real time    0.0354
    SETDIJ:  cpu time    0.0178: real time    0.0178
     EDDAV:  cpu time    1.4848: real time    1.4947
       DOS:  cpu time    0.0011: real time    0.0011
    --------------------------------------------
      LOOP:  cpu time    1.5390: real time    1.5490

 eigenvalue-minimisations  :  1088
 total energy-change (2. order) : 0.6304774E+03  (-0.2267102E+04)
 number of electron     109.0000000 magnetization 
 augmentation part      109.0000000 magnetization 

 Free energy of the ion-electron system (eV)
  ---------------------------------------------------
  alpha Z        PSCENC =       552.45268290
  Ewald energy   TEWEN  =     -5202.29018576
  -Hartree energ DENC   =      -900.41037986
  -exchange      EXHF   =         0.00000000
  -V(xc)+E(xc)   XCENC  =      -770.74835268
  PAW double counting   =      5171.05454107    -4356.08836938
  entropy T*S    EENTRO =        -0.08093098
  eigenvalues    EBANDS =      1449.10419200
  atomic energy  EATOM  =      4687.48422623
  Solvation  Ediel_sol  =         0.00000000
  ---------------------------------------------------
  free energy    TOTEN  =       630.47742354 eV

  energy without entropy =      630.55835452  energy(sigma->0) =      630.51788903


--------------------------------------------------------------------------------------------------------




--------------------------------------- Iteration      1(   2)  ---------------------------------------


     EDDAV:  cpu time    1.4625: real time    1.4644
       DOS:  cpu time    0.0013: real time    0.0013
    --------------------------------------------
      LOOP:  cpu time    1.4638: real time    1.4656

 eigenvalue-minimisations  :  1088
 total energy-change (2. order) :-0.7036055E+03  (-0.6809772E+03)
 number of electron     109.0000000 magnetization 
 augmentation part      109.0000000 magnetization 

 Free energy of the ion-electron system (eV)
  ---------------------------------------------------
  alpha Z        PSCENC =       552.45268290
  Ewald energy   TEWEN  =     -5202.29018576
  -Hartree energ DENC   =      -900.41037986
  -exchange      EXHF   =         0.00000000
  -V(xc)+E(xc)   XCENC  =      -770.74835268
  PAW double counting   =      5171.05454107    -4356.08836938
  entropy T*S    EENTRO =        -0.06534372
  eigenvalues    EBANDS =       745.48312622
  atomic energy  EATOM  =      4687.48422623
  Solvation  Ediel_sol  =         0.00000000
  ---------------------------------------------------
  free energy    TOTEN  =       -73.12805498 eV

  energy without entropy =      -73.06271126  energy(sigma->0) =      -73.09538312


--------------------------------------------------------------------------------------------------------




--------------------------------------- Iteration      1(   3)  ---------------------------------------


     EDDAV:  cpu time    2.1505: real time    2.1533
       DOS:  cpu time    0.0013: real time    0.0013
    --------------------------------------------
      LOOP:  cpu time    2.1517: real time    2.1546

 eigenvalue-minimisations  :  1840
 total energy-change (2. order) :-0.1156705E+03  (-0.1089418E+03)
 number of electron     109.0000000 magnetization 
 augmentation part      109.0000000 magnetization 

 Free energy of the ion-electron system (eV)
  ---------------------------------------------------
  alpha Z        PSCENC =       552.45268290
  Ewald energy   TEWEN  =     -5202.29018576
  -Hartree energ DENC   =      -900.41037986
  -exchange      EXHF   =         0.00000000
  -V(xc)+E(xc)   XCENC  =      -770.74835268
  PAW double counting   =      5171.05454107    -4356.08836938
  entropy T*S    EENTRO =        -0.07654121
  eigenvalues    EBANDS =       629.82386983
  atomic energy  EATOM  =      4687.48422623
  Solvation  Ediel_sol  =         0.00000000
  ---------------------------------------------------
  free energy    TOTEN  =      -188.79850887 eV

  energy without entropy =     -188.72196765  energy(sigma->0) =     -188.76023826


--------------------------------------------------------------------------------------------------------




--------------------------------------- Iteration      1(   4)  ---------------------------------------


     EDDAV:  cpu time    2.0871: real time    2.0897
       DOS:  cpu time    0.0013: real time    0.0013
    --------------------------------------------
      LOOP:  cpu time    2.0885: real time    2.0910

 eigenvalue-minimisations  :  1784
 total energy-change (2. order) :-0.1183329E+02  (-0.1114055E+02)
 number of electron     109.0000000 magnetization 
 augmentation part      109.0000000 magnetization 

 Free energy of the ion-electron system (eV)
  ---------------------------------------------------
  alpha Z        PSCENC =       552.45268290
  Ewald energy   TEWEN  =     -5202.29018576
  -Hartree energ DENC   =      -900.41037986
  -exchange      EXHF   =         0.00000000
  -V(xc)+E(xc)   XCENC  =      -770.74835268
  PAW double counting   =      5171.05454107    -4356.08836938
  entropy T*S    EENTRO =        -0.09789160
  eigenvalues    EBANDS =       618.01192916
  atomic energy  EATOM  =      4687.48422623
  Solvation  Ediel_sol  =         0.00000000
  ---------------------------------------------------
  free energy    TOTEN  =      -200.63179991 eV

  energy without entropy =     -200.53390832  energy(sigma->0) =     -200.58285412


--------------------------------------------------------------------------------------------------------




--------------------------------------- Iteration      1(   5)  ---------------------------------------


     EDDAV:  cpu time    2.0616: real time    2.0643
       DOS:  cpu time    0.0014: real time    0.0014
    CHARGE:  cpu time    0.0546: real time    0.0547
    MIXING:  cpu time    0.0017: real time    0.0017
    --------------------------------------------
      LOOP:  cpu time    2.1193: real time    2.1221

 eigenvalue-minimisations  :  1768
 total energy-change (2. order) :-0.6718796E+00  (-0.6452028E+00)
 number of electron     108.9999871 magnetization 
 augmentation part       34.2247260 magnetization 

 Broyden mixing:
  rms(total) = 0.55958E+01    rms(broyden)= 0.55940E+01
  rms(prec ) = 0.68073E+01
  weight for this iteration     100.00

 Free energy of the ion-electron system (eV)
  ---------------------------------------------------
  alpha Z        PSCENC =       552.45268290
  Ewald energy   TEWEN  =     -5202.29018576
  -Hartree energ DENC   =      -900.41037986
  -exchange      EXHF   =         0.00000000
  -V(xc)+E(xc)   XCENC  =      -770.74835268
  PAW double counting   =      5171.05454107    -4356.08836938
  entropy T*S    EENTRO =        -0.10195894
  eigenvalues    EBANDS =       617.34411690
  atomic energy  EATOM  =      4687.48422623
  Solvation  Ediel_sol  =         0.00000000
  ---------------------------------------------------
  free energy    TOTEN  =      -201.30367952 eV

  energy without entropy =     -201.20172058  energy(sigma->0) =     -201.25270005


--------------------------------------------------------------------------------------------------------




--------------------------------------- Iteration      1(   6)  ---------------------------------------


    POTLOK:  cpu time    0.0320: real time    0.0321
    SETDIJ:  cpu time    0.0173: real time    0.0174
     EDDAV:  cpu time    2.3564: real time    2.3594
       DOS:  cpu time    0.0014: real time    0.0014
    CHARGE:  cpu time    0.0543: real time    0.0544
    MIXING:  cpu time    0.0020: real time    0.0020
    --------------------------------------------
      LOOP:  cpu time    2.4635: real time    2.4667

 eigenvalue-minimisations  :  2112
 total energy-change (2. order) :-0.3704629E+02  (-0.5136713E+02)
 number of electron     108.9999600 magnetization 
 augmentation part       46.4590784 magnetization 

 Broyden mixing:
  rms(total) = 0.88058E+01    rms(broyden)= 0.88047E+01
  rms(prec ) = 0.13792E+02
  weight for this iteration     100.00

 eigenvalues of (default mixing * dielectric matrix)
  average eigenvalue GAMMA=   0.3117
  0.3117

 Free energy of the ion-electron system (eV)
  ---------------------------------------------------
  alpha Z        PSCENC =       552.45268290
  Ewald energy   TEWEN  =     -5202.29018576
  -Hartree energ DENC   =      -693.46619397
  -exchange      EXHF   =         0.00000000
  -V(xc)+E(xc)   XCENC  =      -773.63782189
  PAW double counting   =      6293.73921665    -5461.02609950
  entropy T*S    EENTRO =        -0.10987405
  eigenvalues    EBANDS =       358.50408086
  atomic energy  EATOM  =      4687.48422623
  Solvation  Ediel_sol  =         0.00000000
  ---------------------------------------------------
  free energy    TOTEN  =      -238.34996853 eV

  energy without entropy =     -238.24009448  energy(sigma->0) =     -238.29503150


--------------------------------------------------------------------------------------------------------




--------------------------------------- Iteration      1(   7)  ---------------------------------------


    POTLOK:  cpu time    0.0340: real time    0.0340
    SETDIJ:  cpu time    0.0179: real time    0.0180
     EDDAV:  cpu time    2.3751: real time    2.3778
       DOS:  cpu time    0.0015: real time    0.0015
    CHARGE:  cpu time    0.0546: real time    0.0547
    MIXING:  cpu time    0.0020: real time    0.0020
    --------------------------------------------
      LOOP:  cpu time    2.4851: real time    2.4880

 eigenvalue-minimisations  :  2096
 total energy-change (2. order) : 0.5995904E+02  (-0.4047885E+02)
 number of electron     108.9999771 magnetization 
 augmentation part       43.4758480 magnetization 

 Broyden mixing:
  rms(total) = 0.23607E+01    rms(broyden)= 0.23583E+01
  rms(prec ) = 0.44673E+01
  weight for this iteration     100.00

 eigenvalues of (default mixing * dielectric matrix)
  average eigenvalue GAMMA=   0.5179
  0.7786  0.2572

 Free energy of the ion-electron system (eV)
  ---------------------------------------------------
  alpha Z        PSCENC =       552.45268290
  Ewald energy   TEWEN  =     -5202.29018576
  -Hartree energ DENC   =      -763.71428824
  -exchange      EXHF   =         0.00000000
  -V(xc)+E(xc)   XCENC  =      -770.54788456
  PAW double counting   =      6646.89712950    -5828.26074974
  entropy T*S    EENTRO =        -0.09086207
  eigenvalues    EBANDS =       499.67900163
  atomic energy  EATOM  =      4687.48422623
  Solvation  Ediel_sol  =         0.00000000
  ---------------------------------------------------
  free energy    TOTEN  =      -178.39093010 eV

  energy without entropy =     -178.30006804  energy(sigma->0) =     -178.34549907


--------------------------------------------------------------------------------------------------------




--------------------------------------- Iteration      1(   8)  ---------------------------------------


    POTLOK:  cpu time    0.0321: real time    0.0322
    SETDIJ:  cpu time    0.0171: real time    0.0171
     EDDAV:  cpu time    2.3839: real time    2.3876
       DOS:  cpu time    0.0014: real time    0.0014
    CHARGE:  cpu time    0.0535: real time    0.0536
    MIXING:  cpu time    0.0020: real time    0.0020
    --------------------------------------------
      LOOP:  cpu time    2.4901: real time    2.4939

 eigenvalue-minimisations  :  2136
 total energy-change (2. order) :-0.2907855E+02  (-0.3552133E+02)
 number of electron     108.9999877 magnetization 
 augmentation part       44.4886666 magnetization 

 Broyden mixing:
  rms(total) = 0.59335E+01    rms(broyden)= 0.59322E+01
  rms(prec ) = 0.10283E+02
  weight for this iteration     100.00

 eigenvalues of (default mixing * dielectric matrix)
  average eigenvalue GAMMA=   0.4548
  0.9604  0.2402  0.1639

 Free energy of the ion-electron system (eV)
  ---------------------------------------------------
  alpha Z        PSCENC =       552.45268290
  Ewald energy   TEWEN  =     -5202.29018576
  -Hartree energ DENC   =      -781.92964367
  -exchange      EXHF   =         0.00000000
  -V(xc)+E(xc)   XCENC  =      -768.66004531
  PAW double counting   =      6980.63014438    -6171.66279192
  entropy T*S    EENTRO =        -0.09232829
  eigenvalues    EBANDS =       496.59846497
  atomic energy  EATOM  =      4687.48422623
  Solvation  Ediel_sol  =         0.00000000
  ---------------------------------------------------
  free energy    TOTEN  =      -207.46947646 eV

  energy without entropy =     -207.37714817  energy(sigma->0) =     -207.42331232


--------------------------------------------------------------------------------------------------------




--------------------------------------- Iteration      1(   9)  ---------------------------------------


    POTLOK:  cpu time    0.0309: real time    0.0310
    SETDIJ:  cpu time    0.0187: real time    0.0187
     EDDAV:  cpu time    2.3829: real time    2.3979
       DOS:  cpu time    0.0015: real time    0.0015
    CHARGE:  cpu time    0.0561: real time    0.0562
    MIXING:  cpu time    0.0022: real time    0.0022
    --------------------------------------------
      LOOP:  cpu time    2.4924: real time    2.5074

 eigenvalue-minimisations  :  2128
 total energy-change (2. order) : 0.2973275E+02  (-0.1998512E+02)
 number of electron     108.9999806 magnetization 
 augmentation part       42.6949295 magnetization 

 Broyden mixing:
  rms(total) = 0.26044E+01    rms(broyden)= 0.26018E+01
  rms(prec ) = 0.41485E+01
  weight for this iteration     100.00

 eigenvalues of (default mixing * dielectric matrix)
  average eigenvalue GAMMA=   0.3789
  0.9725  0.2192  0.2041  0.1196

 Free energy of the ion-electron system (eV)
  ---------------------------------------------------
  alpha Z        PSCENC =       552.45268290
  Ewald energy   TEWEN  =     -5202.29018576
  -Hartree energ DENC   =      -757.19526964
  -exchange      EXHF   =         0.00000000
  -V(xc)+E(xc)   XCENC  =      -769.71005686
  PAW double counting   =      7172.44148480    -6365.74920311
  entropy T*S    EENTRO =        -0.10771621
  eigenvalues    EBANDS =       504.93731274
  atomic energy  EATOM  =      4687.48422623
  Solvation  Ediel_sol  =         0.00000000
  ---------------------------------------------------
  free energy    TOTEN  =      -177.73672492 eV

  energy without entropy =     -177.62900871  energy(sigma->0) =     -177.68286681


--------------------------------------------------------------------------------------------------------




--------------------------------------- Iteration      1(  10)  ---------------------------------------


    POTLOK:  cpu time    0.0319: real time    0.0319
    SETDIJ:  cpu time    0.0187: real time    0.0187
     EDDAV:  cpu time    2.4775: real time    2.4968
       DOS:  cpu time    0.0014: real time    0.0014
    CHARGE:  cpu time    0.0489: real time    0.0530
    MIXING:  cpu time    0.0017: real time    0.0017
    --------------------------------------------
      LOOP:  cpu time    2.5801: real time    2.6035

 eigenvalue-minimisations  :  2160
 total energy-change (2. order) : 0.2537326E+01  (-0.2986113E+01)
 number of electron     108.9999790 magnetization 
 augmentation part       42.4327180 magnetization 

 Broyden mixing:
  rms(total) = 0.10544E+01    rms(broyden)= 0.10525E+01
  rms(prec ) = 0.14586E+01
  weight for this iteration     100.00

 eigenvalues of (default mixing * dielectric matrix)
  average eigenvalue GAMMA=   0.3963
  1.0030  0.4415  0.2642  0.1365  0.1365

 Free energy of the ion-electron system (eV)
  ---------------------------------------------------
  alpha Z        PSCENC =       552.45268290
  Ewald energy   TEWEN  =     -5202.29018576
  -Hartree energ DENC   =      -751.98395307
  -exchange      EXHF   =         0.00000000
  -V(xc)+E(xc)   XCENC  =      -769.86168462
  PAW double counting   =      7213.42027398    -6406.89481031
  entropy T*S    EENTRO =        -0.11582669
  eigenvalues    EBANDS =       502.58987874
  atomic energy  EATOM  =      4687.48422623
  Solvation  Ediel_sol  =         0.00000000
  ---------------------------------------------------
  free energy    TOTEN  =      -175.19939859 eV

  energy without entropy =     -175.08357191  energy(sigma->0) =     -175.14148525


--------------------------------------------------------------------------------------------------------




--------------------------------------- Iteration      1(  11)  ---------------------------------------


    POTLOK:  cpu time    0.0288: real time    0.0289
    SETDIJ:  cpu time    0.0172: real time    0.0172
     EDDAV:  cpu time    2.1249: real time    2.1433
       DOS:  cpu time    0.0011: real time    0.0011
    CHARGE:  cpu time    0.0353: real time    0.0354
    MIXING:  cpu time    0.0014: real time    0.0014
    --------------------------------------------
      LOOP:  cpu time    2.2087: real time    2.2273

 eigenvalue-minimisations  :  1896
 total energy-change (2. order) : 0.1974116E+00  (-0.3325615E+00)
 number of electron     108.9999798 magnetization 
 augmentation part       42.4706836 magnetization 

 Broyden mixing:
  rms(total) = 0.92425E+00    rms(broyden)= 0.92414E+00
  rms(prec ) = 0.13068E+01
  weight for this iteration     100.00

 eigenvalues of (default mixing * dielectric matrix)
  average eigenvalue GAMMA=   0.4177
  1.0728  0.4694  0.4694  0.1859  0.1859  0.1225

 Free energy of the ion-electron system (eV)
  ---------------------------------------------------
  alpha Z        PSCENC =       552.45268290
  Ewald energy   TEWEN  =     -5202.29018576
  -Hartree energ DENC   =      -749.50528173
  -exchange      EXHF   =         0.00000000
  -V(xc)+E(xc)   XCENC  =      -769.72617502
  PAW double counting   =      7284.11051410    -6478.03360883
  entropy T*S    EENTRO =        -0.11631199
  eigenvalues    EBANDS =       500.62215313
  atomic energy  EATOM  =      4687.48422623
  Solvation  Ediel_sol  =         0.00000000
  ---------------------------------------------------
  free energy    TOTEN  =      -175.00198697 eV

  energy without entropy =     -174.88567497  energy(sigma->0) =     -174.94383097


--------------------------------------------------------------------------------------------------------




--------------------------------------- Iteration      1(  12)  ---------------------------------------


    POTLOK:  cpu time    0.0204: real time    0.0205
    SETDIJ:  cpu time    0.0110: real time    0.0110
     EDDAV:  cpu time    1.8200: real time    1.8303
       DOS:  cpu time    0.0011: real time    0.0011
    CHARGE:  cpu time    0.0513: real time    0.0513
    MIXING:  cpu time    0.0018: real time    0.0018
    --------------------------------------------
      LOOP:  cpu time    1.9056: real time    1.9160

 eigenvalue-minimisations  :  1800
 total energy-change (2. order) : 0.1395872E+00  (-0.1450001E+00)
 number of electron     108.9999794 magnetization 
 augmentation part       42.7004542 magnetization 

 Broyden mixing:
  rms(total) = 0.84109E+00    rms(broyden)= 0.84105E+00
  rms(prec ) = 0.11736E+01
  weight for this iteration     100.00

 eigenvalues of (default mixing * dielectric matrix)
  average eigenvalue GAMMA=   0.5235
  0.9902  0.9902  0.9638  0.2356  0.1257  0.1794  0.1794

 Free energy of the ion-electron system (eV)
  ---------------------------------------------------
  alpha Z        PSCENC =       552.45268290
  Ewald energy   TEWEN  =     -5202.29018576
  -Hartree energ DENC   =      -745.10797206
  -exchange      EXHF   =         0.00000000
  -V(xc)+E(xc)   XCENC  =      -769.64219200
  PAW double counting   =      7365.49478322    -6559.80740371
  entropy T*S    EENTRO =        -0.11694674
  eigenvalues    EBANDS =       496.67060814
  atomic energy  EATOM  =      4687.48422623
  Solvation  Ediel_sol  =         0.00000000
  ---------------------------------------------------
  free energy    TOTEN  =      -174.86239978 eV

  energy without entropy =     -174.74545304  energy(sigma->0) =     -174.80392641


--------------------------------------------------------------------------------------------------------




--------------------------------------- Iteration      1(  13)  ---------------------------------------


    POTLOK:  cpu time    0.0284: real time    0.0285
    SETDIJ:  cpu time    0.0172: real time    0.0172
     EDDAV:  cpu time    2.1471: real time    2.1700
       DOS:  cpu time    0.0015: real time    0.0015
    CHARGE:  cpu time    0.0520: real time    0.0521
    MIXING:  cpu time    0.0020: real time    0.0020
    --------------------------------------------
      LOOP:  cpu time    2.2482: real time    2.2712

 eigenvalue-minimisations  :  2008
 total energy-change (2. order) : 0.7949031E-01  (-0.2076672E+00)
 number of electron     108.9999787 magnetization 
 augmentation part       43.0635764 magnetization 

 Broyden mixing:
  rms(total) = 0.75756E+00    rms(broyden)= 0.75742E+00
  rms(prec ) = 0.12421E+01
  weight for this iteration     100.00

 eigenvalues of (default mixing * dielectric matrix)
  average eigenvalue GAMMA=   0.5784
  1.4376  1.4376  0.8449  0.2618  0.1794  0.1794  0.1245  0.1620

 Free energy of the ion-electron system (eV)
  ---------------------------------------------------
  alpha Z        PSCENC =       552.45268290
  Ewald energy   TEWEN  =     -5202.29018576
  -Hartree energ DENC   =      -739.61661245
  -exchange      EXHF   =         0.00000000
  -V(xc)+E(xc)   XCENC  =      -769.54261855
  PAW double counting   =      7466.79853100    -6661.51843679
  entropy T*S    EENTRO =        -0.11235513
  eigenvalues    EBANDS =       491.56185908
  atomic energy  EATOM  =      4687.48422623
  Solvation  Ediel_sol  =         0.00000000
  ---------------------------------------------------
  free energy    TOTEN  =      -174.78290946 eV

  energy without entropy =     -174.67055433  energy(sigma->0) =     -174.72673190


--------------------------------------------------------------------------------------------------------




--------------------------------------- Iteration      1(  14)  ---------------------------------------


    POTLOK:  cpu time    0.0287: real time    0.0287
    SETDIJ:  cpu time    0.0170: real time    0.0170
     EDDAV:  cpu time    2.1212: real time    2.1358
       DOS:  cpu time    0.0015: real time    0.0015
    CHARGE:  cpu time    0.0505: real time    0.0546
    MIXING:  cpu time    0.0026: real time    0.0026
    --------------------------------------------
      LOOP:  cpu time    2.2214: real time    2.2402

 eigenvalue-minimisations  :  1904
 total energy-change (2. order) : 0.2847715E+00  (-0.2648235E+00)
 number of electron     108.9999783 magnetization 
 augmentation part       43.4950964 magnetization 

 Broyden mixing:
  rms(total) = 0.57381E+00    rms(broyden)= 0.57360E+00
  rms(prec ) = 0.85107E+00
  weight for this iteration     100.00

 eigenvalues of (default mixing * dielectric matrix)
  average eigenvalue GAMMA=   0.6076
  1.7376  1.7376  0.8153  0.3143  0.2074  0.1952  0.1952  0.1257  0.1403

 Free energy of the ion-electron system (eV)
  ---------------------------------------------------
  alpha Z        PSCENC =       552.45268290
  Ewald energy   TEWEN  =     -5202.29018576
  -Hartree energ DENC   =      -733.50980944
  -exchange      EXHF   =         0.00000000
  -V(xc)+E(xc)   XCENC  =      -769.36241826
  PAW double counting   =      7603.78423346    -6799.14815206
  entropy T*S    EENTRO =        -0.11535104
  eigenvalues    EBANDS =       486.20663596
  atomic energy  EATOM  =      4687.48422623
  Solvation  Ediel_sol  =         0.00000000
  ---------------------------------------------------
  free energy    TOTEN  =      -174.49813800 eV

  energy without entropy =     -174.38278696  energy(sigma->0) =     -174.44046248


--------------------------------------------------------------------------------------------------------




--------------------------------------- Iteration      1(  15)  ---------------------------------------


    POTLOK:  cpu time    0.0335: real time    0.0336
    SETDIJ:  cpu time    0.0172: real time    0.0172
     EDDAV:  cpu time    2.0326: real time    2.0511
       DOS:  cpu time    0.0015: real time    0.0014
    CHARGE:  cpu time    0.0524: real time    0.0531
    MIXING:  cpu time    0.0023: real time    0.0023
    --------------------------------------------
      LOOP:  cpu time    2.1395: real time    2.1587

 eigenvalue-minimisations  :  1864
 total energy-change (2. order) : 0.1216388E+00  (-0.9413727E-01)
 number of electron     108.9999788 magnetization 
 augmentation part       43.4720219 magnetization 

 Broyden mixing:
  rms(total) = 0.37342E+00    rms(broyden)= 0.37331E+00
  rms(prec ) = 0.46632E+00
  weight for this iteration     100.00

 eigenvalues of (default mixing * dielectric matrix)
  average eigenvalue GAMMA=   0.6402
  2.0265  2.0265  0.7636  0.4567  0.2790  0.2222  0.1795  0.1795  0.1251  0.1431

 Free energy of the ion-electron system (eV)
  ---------------------------------------------------
  alpha Z        PSCENC =       552.45268290
  Ewald energy   TEWEN  =     -5202.29018576
  -Hartree energ DENC   =      -734.20324688
  -exchange      EXHF   =         0.00000000
  -V(xc)+E(xc)   XCENC  =      -769.31078629
  PAW double counting   =      7614.40262271    -6809.96837105
  entropy T*S    EENTRO =        -0.12012530
  eigenvalues    EBANDS =       487.17668427
  atomic energy  EATOM  =      4687.48422623
  Solvation  Ediel_sol  =         0.00000000
  ---------------------------------------------------
  free energy    TOTEN  =      -174.37649917 eV

  energy without entropy =     -174.25637387  energy(sigma->0) =     -174.31643652


--------------------------------------------------------------------------------------------------------




--------------------------------------- Iteration      1(  16)  ---------------------------------------


    POTLOK:  cpu time    0.0293: real time    0.0293
    SETDIJ:  cpu time    0.0168: real time    0.0169
     EDDAV:  cpu time    2.3619: real time    2.3807
       DOS:  cpu time    0.0015: real time    0.0015
    CHARGE:  cpu time    0.0524: real time    0.0525
    MIXING:  cpu time    0.0023: real time    0.0023
    --------------------------------------------
      LOOP:  cpu time    2.4642: real time    2.4832

 eigenvalue-minimisations  :  2176
 total energy-change (2. order) : 0.1120447E-01  (-0.2587225E-01)
 number of electron     108.9999794 magnetization 
 augmentation part       43.3870756 magnetization 

 Broyden mixing:
  rms(total) = 0.26395E+00    rms(broyden)= 0.26379E+00
  rms(prec ) = 0.38467E+00
  weight for this iteration     100.00

 eigenvalues of (default mixing * dielectric matrix)
  average eigenvalue GAMMA=   0.6596
  2.1289  2.1289  0.6430  0.6430  0.6369  0.2500  0.1945  0.1824  0.1824  0.1252
  0.1401

 Free energy of the ion-electron system (eV)
  ---------------------------------------------------
  alpha Z        PSCENC =       552.45268290
  Ewald energy   TEWEN  =     -5202.29018576
  -Hartree energ DENC   =      -735.26176666
  -exchange      EXHF   =         0.00000000
  -V(xc)+E(xc)   XCENC  =      -769.22298562
  PAW double counting   =      7628.33549395    -6824.31736089
  entropy T*S    EENTRO =        -0.12179776
  eigenvalues    EBANDS =       488.57639890
  atomic energy  EATOM  =      4687.48422623
  Solvation  Ediel_sol  =         0.00000000
  ---------------------------------------------------
  free energy    TOTEN  =      -174.36529470 eV

  energy without entropy =     -174.24349694  energy(sigma->0) =     -174.30439582


--------------------------------------------------------------------------------------------------------




--------------------------------------- Iteration      1(  17)  ---------------------------------------


    POTLOK:  cpu time    0.0297: real time    0.0297
    SETDIJ:  cpu time    0.0175: real time    0.0175
     EDDAV:  cpu time    2.3904: real time    2.4053
       DOS:  cpu time    0.0014: real time    0.0014
    CHARGE:  cpu time    0.0546: real time    0.0547
    MIXING:  cpu time    0.0031: real time    0.0031
    --------------------------------------------
      LOOP:  cpu time    2.4967: real time    2.5117

 eigenvalue-minimisations  :  2176
 total energy-change (2. order) :-0.3008132E-01  (-0.4374610E-01)
 number of electron     108.9999784 magnetization 
 augmentation part       43.6051307 magnetization 

 Broyden mixing:
  rms(total) = 0.30697E+00    rms(broyden)= 0.30671E+00
  rms(prec ) = 0.50909E+00
  weight for this iteration     100.00

 eigenvalues of (default mixing * dielectric matrix)
  average eigenvalue GAMMA=   0.6570
  2.1164  2.1164  0.7995  0.7995  0.7266  0.2887  0.2095  0.2095  0.1761  0.1761
  0.1252  0.1406

 Free energy of the ion-electron system (eV)
  ---------------------------------------------------
  alpha Z        PSCENC =       552.45268290
  Ewald energy   TEWEN  =     -5202.29018576
  -Hartree energ DENC   =      -732.12068899
  -exchange      EXHF   =         0.00000000
  -V(xc)+E(xc)   XCENC  =      -769.19859931
  PAW double counting   =      7672.26599827    -6868.80367129
  entropy T*S    EENTRO =        -0.11891066
  eigenvalues    EBANDS =       485.93377259
  atomic energy  EATOM  =      4687.48422623
  Solvation  Ediel_sol  =         0.00000000
  ---------------------------------------------------
  free energy    TOTEN  =      -174.39537602 eV

  energy without entropy =     -174.27646536  energy(sigma->0) =     -174.33592069


--------------------------------------------------------------------------------------------------------




--------------------------------------- Iteration      1(  18)  ---------------------------------------


    POTLOK:  cpu time    0.0303: real time    0.0303
    SETDIJ:  cpu time    0.0175: real time    0.0175
     EDDAV:  cpu time    2.4158: real time    2.4390
       DOS:  cpu time    0.0015: real time    0.0015
    CHARGE:  cpu time    0.0519: real time    0.0519
    MIXING:  cpu time    0.0025: real time    0.0025
    --------------------------------------------
      LOOP:  cpu time    2.5194: real time    2.5427

 eigenvalue-minimisations  :  2176
 total energy-change (2. order) : 0.8643098E-02  (-0.1638619E-01)
 number of electron     108.9999783 magnetization 
 augmentation part       43.6119886 magnetization 

 Broyden mixing:
  rms(total) = 0.28694E+00    rms(broyden)= 0.28691E+00
  rms(prec ) = 0.46917E+00
  weight for this iteration     100.00

 eigenvalues of (default mixing * dielectric matrix)
  average eigenvalue GAMMA=   0.6625
  2.2628  1.8547  1.0704  1.0704  0.8191  0.3209  0.2188  0.2188  0.1763  0.1763
  0.1252  0.1406  0.1580

 Free energy of the ion-electron system (eV)
  ---------------------------------------------------
  alpha Z        PSCENC =       552.45268290
  Ewald energy   TEWEN  =     -5202.29018576
  -Hartree energ DENC   =      -732.07033091
  -exchange      EXHF   =         0.00000000
  -V(xc)+E(xc)   XCENC  =      -769.18324679
  PAW double counting   =      7676.20667274    -6872.91993597
  entropy T*S    EENTRO =        -0.11990146
  eigenvalues    EBANDS =       486.05328610
  atomic energy  EATOM  =      4687.48422623
  Solvation  Ediel_sol  =         0.00000000
  ---------------------------------------------------
  free energy    TOTEN  =      -174.38673292 eV

  energy without entropy =     -174.26683147  energy(sigma->0) =     -174.32678220


--------------------------------------------------------------------------------------------------------




--------------------------------------- Iteration      1(  19)  ---------------------------------------


    POTLOK:  cpu time    0.0291: real time    0.0292
    SETDIJ:  cpu time    0.0172: real time    0.0172
     EDDAV:  cpu time    2.3381: real time    2.3610
       DOS:  cpu time    0.0013: real time    0.0013
    CHARGE:  cpu time    0.0539: real time    0.0540
    MIXING:  cpu time    0.0027: real time    0.0027
    --------------------------------------------
      LOOP:  cpu time    2.4425: real time    2.4654

 eigenvalue-minimisations  :  2160
 total energy-change (2. order) : 0.2539183E-01  (-0.8171277E-02)
 number of electron     108.9999787 magnetization 
 augmentation part       43.5304342 magnetization 

 Broyden mixing:
  rms(total) = 0.18703E+00    rms(broyden)= 0.18696E+00
  rms(prec ) = 0.31816E+00
  weight for this iteration     100.00

 eigenvalues of (default mixing * dielectric matrix)
  average eigenvalue GAMMA=   0.6505
  2.3306  1.6095  1.6095  0.9142  0.9142  0.3241  0.2287  0.2287  0.1791  0.1791
  0.1877  0.1252  0.1410  0.1354

 Free energy of the ion-electron system (eV)
  ---------------------------------------------------
  alpha Z        PSCENC =       552.45268290
  Ewald energy   TEWEN  =     -5202.29018576
  -Hartree energ DENC   =      -733.00456031
  -exchange      EXHF   =         0.00000000
  -V(xc)+E(xc)   XCENC  =      -769.14114666
  PAW double counting   =      7675.27774629    -6872.29371891
  entropy T*S    EENTRO =        -0.11952015
  eigenvalues    EBANDS =       487.27313530
  atomic energy  EATOM  =      4687.48422623
  Solvation  Ediel_sol  =         0.00000000
  ---------------------------------------------------
  free energy    TOTEN  =      -174.36134109 eV

  energy without entropy =     -174.24182094  energy(sigma->0) =     -174.30158101


--------------------------------------------------------------------------------------------------------




--------------------------------------- Iteration      1(  20)  ---------------------------------------


    POTLOK:  cpu time    0.0308: real time    0.0308
    SETDIJ:  cpu time    0.0177: real time    0.0177
     EDDAV:  cpu time    2.1582: real time    2.1770
       DOS:  cpu time    0.0015: real time    0.0015
    CHARGE:  cpu time    0.0517: real time    0.0518
    MIXING:  cpu time    0.0026: real time    0.0026
    --------------------------------------------
      LOOP:  cpu time    2.2625: real time    2.2814

 eigenvalue-minimisations  :  2000
 total energy-change (2. order) : 0.1534494E-01  (-0.5648213E-02)
 number of electron     108.9999789 magnetization 
 augmentation part       43.4664050 magnetization 

 Broyden mixing:
  rms(total) = 0.87964E-01    rms(broyden)= 0.87859E-01
  rms(prec ) = 0.13941E+00
  weight for this iteration     100.00

 eigenvalues of (default mixing * dielectric matrix)
  average eigenvalue GAMMA=   0.6790
  2.5979  1.6940  1.6940  0.9780  0.8315  0.6350  0.3760  0.2179  0.2179  0.1784
  0.1784  0.1969  0.1403  0.1252  0.1236

 Free energy of the ion-electron system (eV)
  ---------------------------------------------------
  alpha Z        PSCENC =       552.45268290
  Ewald energy   TEWEN  =     -5202.29018576
  -Hartree energ DENC   =      -733.67826151
  -exchange      EXHF   =         0.00000000
  -V(xc)+E(xc)   XCENC  =      -769.13708861
  PAW double counting   =      7668.28588287    -6865.40546827
  entropy T*S    EENTRO =        -0.12061558
  eigenvalues    EBANDS =       488.06283159
  atomic energy  EATOM  =      4687.48422623
  Solvation  Ediel_sol  =         0.00000000
  ---------------------------------------------------
  free energy    TOTEN  =      -174.34599615 eV

  energy without entropy =     -174.22538057  energy(sigma->0) =     -174.28568836


--------------------------------------------------------------------------------------------------------




--------------------------------------- Iteration      1(  21)  ---------------------------------------


    POTLOK:  cpu time    0.0297: real time    0.0337
    SETDIJ:  cpu time    0.0171: real time    0.0172
     EDDAV:  cpu time    2.0953: real time    2.1098
       DOS:  cpu time    0.0012: real time    0.0012
    CHARGE:  cpu time    0.0494: real time    0.0494
    MIXING:  cpu time    0.0026: real time    0.0026
    --------------------------------------------
      LOOP:  cpu time    2.1952: real time    2.2138

 eigenvalue-minimisations  :  2000
 total energy-change (2. order) : 0.7054457E-03  (-0.1114496E-02)
 number of electron     108.9999790 magnetization 
 augmentation part       43.4531991 magnetization 

 Broyden mixing:
  rms(total) = 0.64492E-01    rms(broyden)= 0.64482E-01
  rms(prec ) = 0.10667E+00
  weight for this iteration     100.00

 eigenvalues of (default mixing * dielectric matrix)
  average eigenvalue GAMMA=   0.6570
  2.6248  1.7346  1.7346  0.9840  0.8129  0.6739  0.3860  0.2363  0.2007  0.2007
  0.1754  0.1754  0.1835  0.1402  0.1254  0.1244

 Free energy of the ion-electron system (eV)
  ---------------------------------------------------
  alpha Z        PSCENC =       552.45268290
  Ewald energy   TEWEN  =     -5202.29018576
  -Hartree energ DENC   =      -733.71079551
  -exchange      EXHF   =         0.00000000
  -V(xc)+E(xc)   XCENC  =      -769.12961536
  PAW double counting   =      7668.57104137    -6865.74610247
  entropy T*S    EENTRO =        -0.12040464
  eigenvalues    EBANDS =       488.14386254
  atomic energy  EATOM  =      4687.48422623
  Solvation  Ediel_sol  =         0.00000000
  ---------------------------------------------------
  free energy    TOTEN  =      -174.34529070 eV

  energy without entropy =     -174.22488606  energy(sigma->0) =     -174.28508838


--------------------------------------------------------------------------------------------------------




--------------------------------------- Iteration      1(  22)  ---------------------------------------


    POTLOK:  cpu time    0.0296: real time    0.0297
    SETDIJ:  cpu time    0.0175: real time    0.0175
     EDDAV:  cpu time    2.0184: real time    2.0367
       DOS:  cpu time    0.0016: real time    0.0016
    CHARGE:  cpu time    0.0508: real time    0.0509
    MIXING:  cpu time    0.0027: real time    0.0027
    --------------------------------------------
      LOOP:  cpu time    2.1205: real time    2.1389

 eigenvalue-minimisations  :  1896
 total energy-change (2. order) : 0.9624751E-03  (-0.3544324E-03)
 number of electron     108.9999790 magnetization 
 augmentation part       43.4463604 magnetization 

 Broyden mixing:
  rms(total) = 0.48795E-01    rms(broyden)= 0.48790E-01
  rms(prec ) = 0.79786E-01
  weight for this iteration     100.00

 eigenvalues of (default mixing * dielectric matrix)
  average eigenvalue GAMMA=   0.6752
  2.6149  1.8595  1.8595  0.9535  0.8629  0.7064  0.7064  0.3419  0.2221  0.2221
  0.1789  0.1789  0.1981  0.1831  0.1403  0.1253  0.1241

 Free energy of the ion-electron system (eV)
  ---------------------------------------------------
  alpha Z        PSCENC =       552.45268290
  Ewald energy   TEWEN  =     -5202.29018576
  -Hartree energ DENC   =      -733.76065108
  -exchange      EXHF   =         0.00000000
  -V(xc)+E(xc)   XCENC  =      -769.12733098
  PAW double counting   =      7668.05858531    -6865.24999144
  entropy T*S    EENTRO =        -0.12062189
  eigenvalues    EBANDS =       488.20895849
  atomic energy  EATOM  =      4687.48422623
  Solvation  Ediel_sol  =         0.00000000
  ---------------------------------------------------
  free energy    TOTEN  =      -174.34432823 eV

  energy without entropy =     -174.22370633  energy(sigma->0) =     -174.28401728


--------------------------------------------------------------------------------------------------------




--------------------------------------- Iteration      1(  23)  ---------------------------------------


    POTLOK:  cpu time    0.0288: real time    0.0288
    SETDIJ:  cpu time    0.0170: real time    0.0170
     EDDAV:  cpu time    2.1890: real time    2.2117
       DOS:  cpu time    0.0015: real time    0.0015
    CHARGE:  cpu time    0.0523: real time    0.0524
    MIXING:  cpu time    0.0024: real time    0.0024
    --------------------------------------------
      LOOP:  cpu time    2.2909: real time    2.3137

 eigenvalue-minimisations  :  2096
 total energy-change (2. order) : 0.4502740E-03  (-0.9709499E-04)
 number of electron     108.9999790 magnetization 
 augmentation part       43.4364383 magnetization 

 Broyden mixing:
  rms(total) = 0.34415E-01    rms(broyden)= 0.34411E-01
  rms(prec ) = 0.56202E-01
  weight for this iteration     100.00

 eigenvalues of (default mixing * dielectric matrix)
  average eigenvalue GAMMA=   0.6722
  2.5812  1.9388  1.9388  1.0256  0.8480  0.7736  0.7736  0.3248  0.3248  0.2294
  0.2051  0.2051  0.1778  0.1778  0.1854  0.1403  0.1253  0.1241

 Free energy of the ion-electron system (eV)
  ---------------------------------------------------
  alpha Z        PSCENC =       552.45268290
  Ewald energy   TEWEN  =     -5202.29018576
  -Hartree energ DENC   =      -733.86629045
  -exchange      EXHF   =         0.00000000
  -V(xc)+E(xc)   XCENC  =      -769.12467884
  PAW double counting   =      7666.46582062    -6863.67210771
  entropy T*S    EENTRO =        -0.12060057
  eigenvalues    EBANDS =       488.32725561
  atomic energy  EATOM  =      4687.48422623
  Solvation  Ediel_sol  =         0.00000000
  ---------------------------------------------------
  free energy    TOTEN  =      -174.34387795 eV

  energy without entropy =     -174.22327739  energy(sigma->0) =     -174.28357767


--------------------------------------------------------------------------------------------------------




--------------------------------------- Iteration      1(  24)  ---------------------------------------


    POTLOK:  cpu time    0.0268: real time    0.0269
    SETDIJ:  cpu time    0.0140: real time    0.0140
     EDDAV:  cpu time    1.9376: real time    1.9518
       DOS:  cpu time    0.0014: real time    0.0014
    CHARGE:  cpu time    0.0520: real time    0.0521
    MIXING:  cpu time    0.0029: real time    0.0029
    --------------------------------------------
      LOOP:  cpu time    2.0347: real time    2.0491

 eigenvalue-minimisations  :  1824
 total energy-change (2. order) : 0.2307177E-03  (-0.8033810E-04)
 number of electron     108.9999790 magnetization 
 augmentation part       43.4309317 magnetization 

 Broyden mixing:
  rms(total) = 0.26269E-01    rms(broyden)= 0.26266E-01
  rms(prec ) = 0.43468E-01
  weight for this iteration     100.00

 eigenvalues of (default mixing * dielectric matrix)
  average eigenvalue GAMMA=   0.7289
  2.6833  2.0683  2.0683  1.1503  1.0891  1.0891  0.7948  0.7948  0.3574  0.2175
  0.2175  0.2064  0.1783  0.1783  0.1856  0.1797  0.1403  0.1253  0.1241

 Free energy of the ion-electron system (eV)
  ---------------------------------------------------
  alpha Z        PSCENC =       552.45268290
  Ewald energy   TEWEN  =     -5202.29018576
  -Hartree energ DENC   =      -733.92504251
  -exchange      EXHF   =         0.00000000
  -V(xc)+E(xc)   XCENC  =      -769.12387784
  PAW double counting   =      7665.33107753    -6862.54296727
  entropy T*S    EENTRO =        -0.12070413
  eigenvalues    EBANDS =       488.39114362
  atomic energy  EATOM  =      4687.48422623
  Solvation  Ediel_sol  =         0.00000000
  ---------------------------------------------------
  free energy    TOTEN  =      -174.34364723 eV

  energy without entropy =     -174.22294311  energy(sigma->0) =     -174.28329517


--------------------------------------------------------------------------------------------------------




--------------------------------------- Iteration      1(  25)  ---------------------------------------


    POTLOK:  cpu time    0.0285: real time    0.0286
    SETDIJ:  cpu time    0.0168: real time    0.0168
     EDDAV:  cpu time    2.1179: real time    2.1487
       DOS:  cpu time    0.0016: real time    0.0016
    CHARGE:  cpu time    0.0497: real time    0.0498
    MIXING:  cpu time    0.0031: real time    0.0031
    --------------------------------------------
      LOOP:  cpu time    2.2176: real time    2.2485

 eigenvalue-minimisations  :  2112
 total energy-change (2. order) : 0.2606716E-03  (-0.6851991E-04)
 number of electron     108.9999791 magnetization 
 augmentation part       43.4199449 magnetization 

 Broyden mixing:
  rms(total) = 0.89326E-02    rms(broyden)= 0.89150E-02
  rms(prec ) = 0.15148E-01
  weight for this iteration     100.00

 eigenvalues of (default mixing * dielectric matrix)
  average eigenvalue GAMMA=   0.7147
  2.7629  2.0517  2.0517  1.2402  1.0940  1.0940  0.7989  0.7989  0.3601  0.2867
  0.2202  0.2202  0.1783  0.1783  0.2024  0.1919  0.1740  0.1403  0.1253  0.1241

 Free energy of the ion-electron system (eV)
  ---------------------------------------------------
  alpha Z        PSCENC =       552.45268290
  Ewald energy   TEWEN  =     -5202.29018576
  -Hartree energ DENC   =      -734.05755062
  -exchange      EXHF   =         0.00000000
  -V(xc)+E(xc)   XCENC  =      -769.12092433
  PAW double counting   =      7663.82373986    -6861.05013958
  entropy T*S    EENTRO =        -0.12079104
  eigenvalues    EBANDS =       488.53555577
  atomic energy  EATOM  =      4687.48422623
  Solvation  Ediel_sol  =         0.00000000
  ---------------------------------------------------
  free energy    TOTEN  =      -174.34338656 eV

  energy without entropy =     -174.22259553  energy(sigma->0) =     -174.28299105


--------------------------------------------------------------------------------------------------------




--------------------------------------- Iteration      1(  26)  ---------------------------------------


    POTLOK:  cpu time    0.0288: real time    0.0289
    SETDIJ:  cpu time    0.0161: real time    0.0161
     EDDAV:  cpu time    1.8255: real time    1.8436
       DOS:  cpu time    0.0014: real time    0.0014
    CHARGE:  cpu time    0.0515: real time    0.0516
    MIXING:  cpu time    0.0038: real time    0.0037
    --------------------------------------------
      LOOP:  cpu time    1.9271: real time    1.9453

 eigenvalue-minimisations  :  1696
 total energy-change (2. order) : 0.1700413E-04  (-0.1364795E-04)
 number of electron     108.9999791 magnetization 
 augmentation part       43.4165759 magnetization 

 Broyden mixing:
  rms(total) = 0.51129E-02    rms(broyden)= 0.51098E-02
  rms(prec ) = 0.89090E-02
  weight for this iteration     100.00

 eigenvalues of (default mixing * dielectric matrix)
  average eigenvalue GAMMA=   0.7671
  3.1778  2.1768  1.8571  1.8571  1.3807  0.9270  0.9270  0.7564  0.7564  0.3561
  0.1253  0.1241  0.1403  0.2187  0.2187  0.1783  0.1783  0.2052  0.1917  0.1817
  0.1757

 Free energy of the ion-electron system (eV)
  ---------------------------------------------------
  alpha Z        PSCENC =       552.45268290
  Ewald energy   TEWEN  =     -5202.29018576
  -Hartree energ DENC   =      -734.08170772
  -exchange      EXHF   =         0.00000000
  -V(xc)+E(xc)   XCENC  =      -769.12029137
  PAW double counting   =      7663.59002881    -6860.81925051
  entropy T*S    EENTRO =        -0.12080260
  eigenvalues    EBANDS =       488.56193046
  atomic energy  EATOM  =      4687.48422623
  Solvation  Ediel_sol  =         0.00000000
  ---------------------------------------------------
  free energy    TOTEN  =      -174.34336956 eV

  energy without entropy =     -174.22256696  energy(sigma->0) =     -174.28296826


--------------------------------------------------------------------------------------------------------




--------------------------------------- Iteration      1(  27)  ---------------------------------------


    POTLOK:  cpu time    0.0335: real time    0.0336
    SETDIJ:  cpu time    0.0180: real time    0.0180
     EDDAV:  cpu time    1.1535: real time    1.1669
       DOS:  cpu time    0.0014: real time    0.0014
    CHARGE:  cpu time    0.0500: real time    0.0501
    MIXING:  cpu time    0.0034: real time    0.0034
    --------------------------------------------
      LOOP:  cpu time    1.2598: real time    1.2733

 eigenvalue-minimisations  :   904
 total energy-change (2. order) : 0.1278356E-04  (-0.2483080E-05)
 number of electron     108.9999791 magnetization 
 augmentation part       43.4159495 magnetization 

 Broyden mixing:
  rms(total) = 0.24319E-02    rms(broyden)= 0.24284E-02
  rms(prec ) = 0.42093E-02
  weight for this iteration     100.00

 eigenvalues of (default mixing * dielectric matrix)
  average eigenvalue GAMMA=   0.7508
  3.1285  2.0125  1.9179  1.9179  1.5191  0.9261  0.9261  0.7573  0.7573  0.3580
  0.3580  0.1253  0.1241  0.1403  0.2183  0.2183  0.1783  0.1783  0.2053  0.1907
  0.1863  0.1736

 Free energy of the ion-electron system (eV)
  ---------------------------------------------------
  alpha Z        PSCENC =       552.45268290
  Ewald energy   TEWEN  =     -5202.29018576
  -Hartree energ DENC   =      -734.09433063
  -exchange      EXHF   =         0.00000000
  -V(xc)+E(xc)   XCENC  =      -769.11968860
  PAW double counting   =      7663.30149329    -6860.52587554
  entropy T*S    EENTRO =        -0.12081827
  eigenvalues    EBANDS =       488.56913960
  atomic energy  EATOM  =      4687.48422623
  Solvation  Ediel_sol  =         0.00000000
  ---------------------------------------------------
  free energy    TOTEN  =      -174.34335678 eV

  energy without entropy =     -174.22253850  energy(sigma->0) =     -174.28294764


--------------------------------------------------------------------------------------------------------




--------------------------------------- Iteration      1(  28)  ---------------------------------------


    POTLOK:  cpu time    0.0284: real time    0.0284
    SETDIJ:  cpu time    0.0172: real time    0.0172
     EDDAV:  cpu time    1.0209: real time    1.0302
       DOS:  cpu time    0.0015: real time    0.0014
    --------------------------------------------
      LOOP:  cpu time    1.0679: real time    1.0772

 eigenvalue-minimisations  :   736
[...]
     51       6.3100      1.99994
     52       6.3700      1.99838
     53       6.3761      1.99783
     54       6.4919      1.84690
     55       6.6255      0.64477
     56       6.6861      0.18745
     57       6.8170      0.00153
     58       6.9254      0.00000
     59       7.0415      0.00000
     60       7.0651      0.00000
     61       7.2220      0.00000
     62       7.2788      0.00000
     63       7.4520      0.00000
     64       7.4967      0.00000
     65       7.5614      0.00000
     66       7.6582      0.00000
     67       7.6970      0.00000
     68       7.7517      0.00000

 k-point     6 :       0.5000   -0.0000    0.3333
  band No.  band energies     occupation 
      1       1.2896      2.00000
      2       1.3961      2.00000
      3       2.7392      2.00000
      4       2.8659      2.00000
      5       2.9595      2.00000
      6       3.0471      2.00000
      7       3.1455      2.00000
      8       3.1962      2.00000
      9       3.3049      2.00000
     10       3.3592      2.00000
     11       3.4950      2.00000
     12       3.5562      2.00000
     13       3.5947      2.00000
     14       3.6282      2.00000
     15       3.6875      2.00000
     16       3.9939      2.00000
     17       4.0949      2.00000
     18       4.2302      2.00000
     19       4.2568      2.00000
     20       4.3295      2.00000
     21       4.3882      2.00000
     22       4.7250      2.00000
     23       4.7521      2.00000
     24       4.7730      2.00000
     25       4.7974      2.00000
     26       4.8615      2.00000
     27       4.8779      2.00000
     28       4.9231      2.00000
     29       4.9351      2.00000
     30       4.9902      2.00000
     31       5.1254      2.00000
     32       5.2372      2.00000
     33       5.2443      2.00000
     34       5.2944      2.00000
     35       5.3229      2.00000
     36       5.4209      2.00000
     37       5.4498      2.00000
     38       5.5625      2.00000
     39       5.6249      2.00000
     40       5.6521      2.00000
     41       5.6756      2.00000
     42       5.6851      2.00000
     43       5.7335      2.00000
     44       5.8273      2.00000
     45       5.8603      2.00000
     46       5.9044      2.00000
     47       5.9980      2.00000
     48       6.0793      2.00000
     49       6.1198      2.00000
     50       6.2312      2.00000
     51       6.2671      2.00000
     52       6.3095      1.99994
     53       6.4042      1.99236
     54       6.4652      1.92899
     55       6.5701      1.25288
     56       6.6515      0.40743
     57       6.7563      0.02082
     58       6.9404      0.00000
     59       7.0181      0.00000
     60       7.1716      0.00000
     61       7.3343      0.00000
     62       7.4463      0.00000
     63       7.5022      0.00000
     64       7.5563      0.00000
     65       7.5873      0.00000
     66       7.6579      0.00000
     67       7.8050      0.00000
     68       7.8692      0.00000

 k-point     7 :       0.0000    0.5000    0.3333
  band No.  band energies     occupation 
      1       1.0364      2.00000
      2       1.5627      2.00000
      3       2.4944      2.00000
      4       2.6329      2.00000
      5       2.9760      2.00000
      6       3.1141      2.00000
      7       3.1691      2.00000
      8       3.3913      2.00000
      9       3.5367      2.00000
     10       3.6308      2.00000
     11       3.7065      2.00000
     12       3.7102      2.00000
     13       3.8118      2.00000
     14       3.8595      2.00000
     15       3.8609      2.00000
     16       3.9379      2.00000
     17       3.9830      2.00000
     18       4.0167      2.00000
     19       4.1083      2.00000
     20       4.1694      2.00000
     21       4.2376      2.00000
     22       4.2711      2.00000
     23       4.5418      2.00000
     24       4.6280      2.00000
     25       4.7494      2.00000
     26       4.8084      2.00000
     27       4.8516      2.00000
     28       4.9019      2.00000
     29       4.9320      2.00000
     30       4.9752      2.00000
     31       5.0056      2.00000
     32       5.1587      2.00000
     33       5.2415      2.00000
     34       5.2706      2.00000
     35       5.3550      2.00000
     36       5.4317      2.00000
     37       5.4751      2.00000
     38       5.5345      2.00000
     39       5.7238      2.00000
     40       5.7387      2.00000
     41       5.8132      2.00000
     42       5.8518      2.00000
     43       5.9822      2.00000
     44       6.0701      2.00000
     45       6.1157      2.00000
     46       6.1325      2.00000
     47       6.2199      2.00000
     48       6.2299      2.00000
     49       6.2812      1.99999
     50       6.3120      1.99993
     51       6.3944      1.99499
     52       6.4314      1.97764
     53       6.4518      1.95403
     54       6.5236      1.67310
     55       6.6000      0.92006
     56       6.6861      0.18745
     57       6.7398      0.03768
     58       6.7869      0.00607
     59       7.0032      0.00000
     60       7.2080      0.00000
     61       7.2102      0.00000
     62       7.2737      0.00000
     63       7.3351      0.00000
     64       7.4129      0.00000
     65       7.4367      0.00000
     66       7.5460      0.00000
     67       7.6161      0.00000
     68       7.6846      0.00000

 k-point     8 :       0.5000    0.5000    0.3333
  band No.  band energies     occupation 
      1       1.4053      2.00000
      2       1.5992      2.00000
      3       2.2052      2.00000
      4       2.2650      2.00000
      5       3.1033      2.00000
      6       3.3138      2.00000
      7       3.3670      2.00000
      8       3.4593      2.00000
      9       3.4964      2.00000
     10       3.5975      2.00000
     11       3.6117      2.00000
     12       3.7069      2.00000
     13       3.7569      2.00000
     14       3.7740      2.00000
     15       3.8040      2.00000
     16       3.8406      2.00000
     17       3.8631      2.00000
     18       3.9065      2.00000
     19       3.9777      2.00000
     20       3.9824      2.00000
     21       4.0682      2.00000
     22       4.2345      2.00000
     23       4.5979      2.00000
     24       4.7065      2.00000
     25       4.8299      2.00000
     26       4.8633      2.00000
     27       4.9136      2.00000
     28       5.0668      2.00000
     29       5.1726      2.00000
     30       5.1834      2.00000
     31       5.2368      2.00000
     32       5.2973      2.00000
     33       5.3239      2.00000
     34       5.3983      2.00000
     35       5.4857      2.00000
     36       5.5081      2.00000
     37       5.5434      2.00000
     38       5.5878      2.00000
     39       5.5997      2.00000
     40       5.6500      2.00000
     41       5.7273      2.00000
     42       5.7968      2.00000
     43       5.8922      2.00000
     44       5.9118      2.00000
     45       5.9520      2.00000
     46       6.0062      2.00000
     47       6.0402      2.00000
     48       6.0763      2.00000
     49       6.1086      2.00000
     50       6.1342      2.00000
     51       6.1908      2.00000
     52       6.2347      2.00000
     53       6.2817      1.99999
     54       6.3734      1.99809
     55       6.4677      1.92331
     56       6.5360      1.57858
     57       6.6748      0.24657
     58       6.7478      0.02844
     59       6.8045      0.00277
     60       7.2530      0.00000
     61       7.3382      0.00000
     62       7.4207      0.00000
     63       7.4822      0.00000
     64       7.5821      0.00000
     65       7.6764      0.00000
     66       7.6799      0.00000
     67       7.8463      0.00000
     68       7.9041      0.00000


--------------------------------------------------------------------------------------------------------


 soft charge-density along one line, spin component           1
         0         1         2         3         4         5         6         7         8         9
 total charge-density along one line
 
 pseudopotential strength for first ion, spin component:           1
 -1.146  -0.000  -0.008  -0.000   0.004  -1.668  -0.000  -0.007
 -0.000  -1.134  -0.000  -0.000   0.000  -0.000  -1.655  -0.000
 -0.008  -0.000  -1.132  -0.000  -0.011  -0.007  -0.000  -1.654
 -0.000  -0.000  -0.000  -1.131  -0.000  -0.000  -0.000  -0.000
  0.004   0.000  -0.011  -0.000  -1.142   0.004   0.000  -0.011
 -1.668  -0.000  -0.007  -0.000   0.004  -2.139  -0.000  -0.007
 -0.000  -1.655  -0.000  -0.000   0.000  -0.000  -2.127  -0.000
 -0.007  -0.000  -1.654  -0.000  -0.011  -0.007  -0.000  -2.126
 -0.000  -0.000  -0.000  -1.653  -0.000  -0.000  -0.000  -0.000
  0.004   0.000  -0.011  -0.000  -1.664   0.004   0.000  -0.011
 -0.001   0.000  -0.003   0.000  -0.003  -0.001   0.000  -0.003
  0.003  -0.000   0.006  -0.000   0.006   0.003  -0.000   0.006
  0.001  -0.000   0.005  -0.000   0.007   0.001  -0.000   0.005
 -0.000  -0.007  -0.000  -0.001  -0.000  -0.000  -0.006  -0.000
 -0.008  -0.000  -0.001  -0.000   0.000  -0.007  -0.000  -0.001
 -0.001   0.000  -0.006   0.000  -0.010  -0.001   0.000  -0.006
  0.000   0.009   0.000   0.000   0.000   0.000   0.008   0.000
  0.010   0.000   0.001   0.000  -0.000   0.009   0.000   0.001
 total augmentation occupancy for first ion, spin component:           1
  0.518  -0.000  -0.040   0.000   0.040  -0.845   0.000   0.078  -0.000  -0.064  -0.010   0.000   0.010   0.000  -0.087   0.000
 -0.000   0.596   0.000  -0.041  -0.000   0.000  -1.015  -0.000   0.083   0.000  -0.000  -0.000  -0.000  -0.046   0.000  -0.000
 -0.040   0.000   0.460  -0.000  -0.049   0.077  -0.000  -0.763   0.000   0.117   0.056   0.003   0.053   0.000  -0.022   0.002
  0.000  -0.041  -0.000   0.443   0.000  -0.000   0.084   0.000  -0.665  -0.000   0.000   0.000   0.000  -0.010  -0.000   0.000
  0.040  -0.000  -0.049   0.000   0.571  -0.065   0.000   0.119  -0.000  -0.938   0.015   0.001   0.057   0.000   0.026   0.002
 -0.845   0.000   0.077  -0.000  -0.065   1.952  -0.000  -0.090   0.000   0.040   0.019   0.000  -0.001  -0.000   0.075  -0.001
  0.000  -1.015  -0.000   0.084   0.000  -0.000   2.079  -0.000  -0.083  -0.000   0.000   0.000   0.000   0.018  -0.000   0.000
  0.078  -0.000  -0.763   0.000   0.119  -0.090  -0.000   1.871  -0.000  -0.132  -0.057  -0.003  -0.056  -0.000   0.021  -0.003
 -0.000   0.083   0.000  -0.665  -0.000   0.000  -0.083  -0.000   1.709  -0.000  -0.000  -0.000  -0.000   0.010   0.000  -0.000
 -0.064   0.000   0.117  -0.000  -0.938   0.040  -0.000  -0.132  -0.000   2.017   0.003  -0.001  -0.041  -0.000  -0.025  -0.002
 -0.010  -0.000   0.056   0.000   0.015   0.019   0.000  -0.057  -0.000   0.003   2.072   0.047   0.019  -0.000   0.004   0.003
  0.000  -0.000   0.003   0.000   0.001   0.000   0.000  -0.003  -0.000  -0.001   0.047   0.001   0.002   0.000  -0.000   0.000
  0.010  -0.000   0.053   0.000   0.057  -0.001   0.000  -0.056  -0.000  -0.041   0.019   0.002   0.415   0.000   0.002   0.012
  0.000  -0.046   0.000  -0.010   0.000  -0.000   0.018  -0.000   0.010  -0.000  -0.000   0.000   0.000   0.388  -0.000   0.000
 -0.087   0.000  -0.022  -0.000   0.026   0.075  -0.000   0.021   0.000  -0.025   0.004  -0.000   0.002  -0.000   0.408  -0.000
  0.000  -0.000   0.002   0.000   0.002  -0.001   0.000  -0.003  -0.000  -0.002   0.003   0.000   0.012   0.000  -0.000   0.000
  0.000  -0.002  -0.000  -0.000   0.000   0.000   0.001   0.000   0.001   0.000   0.000   0.000   0.000   0.010  -0.000   0.000
 -0.003   0.000  -0.001  -0.000   0.001   0.004  -0.000   0.002   0.000  -0.001  -0.000  -0.000  -0.000  -0.000   0.011  -0.000


------------------------ aborting loop because EDIFF is reached ----------------------------------------


    CHARGE:  cpu time    0.0494: real time    0.0495
    FORLOC:  cpu time    0.0083: real time    0.0083
    FORNL :  cpu time    1.1222: real time    1.1235
    STRESS:  cpu time    1.1209: real time    1.1221
    FORCOR:  cpu time    0.0351: real time    0.0351
    FORHAR:  cpu time    0.0128: real time    0.0128
    MIXING:  cpu time    0.0015: real time    0.0015
    OFIELD:  cpu time    0.0001: real time    0.0001

  FORCE on cell =-STRESS in cart. coord.  units (eV):
  Direction    XX          YY          ZZ          XY          YZ          ZX
  --------------------------------------------------------------------------------------
  Alpha Z   569.59707   569.59707   569.59707
  Ewald   -1691.14651 -1901.87653 -1722.31762     2.05896     0.00798     0.03874
  Hartree   295.42613    71.40537   298.25654     7.75321    -0.00000     0.00902
  E(xc)    -499.02250  -499.22160  -497.50651     0.17334    -0.00046    -0.00158
  Local     116.52627   557.02905   142.67482   -10.45334    -0.00734    -0.04430
  n-local   -90.68119   -91.15921   -91.28007     0.04372     0.00002    -0.00101
  augment   448.14107   448.29000   448.33977     0.06512    -0.00038     0.00020
  Kinetic   851.05929   845.88162   852.08603     0.34220     0.00027    -0.00114
  Fock        0.00000     0.00000     0.00000     0.00000     0.00000     0.00000
  -------------------------------------------------------------------------------------
  Total      -0.10037    -0.05424    -0.14998    -0.01679     0.00008    -0.00007
  in kB      -0.63999    -0.34585    -0.95628    -0.10707     0.00054    -0.00047
  external pressure =       -0.65 kB  Pullay stress =        0.00 kB


 VOLUME and BASIS-vectors are now :
 -----------------------------------------------------------------------------
  energy-cutoff  :      267.88
  volume of cell :      251.27
      direct lattice vectors                 reciprocal lattice vectors
     7.549565953 -0.140846249  0.000041821     0.133106901  0.034784948  0.000006271
    -2.071978633  7.928563064 -0.000031502     0.002364566  0.126744193  0.000001725
    -0.000184624 -0.000053981  4.218460196    -0.000001302  0.000000602  0.237053321

  length of vectors
     7.550879668  8.194828107  4.218460200     0.137577032  0.126766248  0.237053321


 FORCES acting on ions
    electron-ion (+dipol)            ewald-force                    non-local-force                 convergence-correction
 -----------------------------------------------------------------------------------------------
   -.721E+01 0.851E+02 0.872E-02   0.732E+01 -.853E+02 -.828E-02   -.106E+00 0.234E+00 -.618E-03   -.722E-03 0.348E-02 -.384E-05
   0.218E+02 -.828E+02 0.910E-02   -.218E+02 0.832E+02 -.878E-02   -.314E-01 -.347E+00 -.542E-03   0.632E-03 -.304E-02 0.331E-05
   -.186E+02 0.755E+02 -.739E-03   0.181E+02 -.766E+02 0.627E-03   0.462E+00 0.114E+01 -.327E-03   0.623E-02 -.889E-02 0.144E-04
   0.131E+02 0.497E+02 0.869E-02   -.133E+02 -.500E+02 -.854E-02   0.161E+00 0.303E+00 -.143E-03   -.181E-03 0.583E-02 -.287E-04
   -.782E+01 -.201E+02 -.199E-03   0.791E+01 0.203E+02 -.110E-03   -.971E-01 -.168E+00 0.294E-03   -.326E-03 0.761E-02 -.279E-04
   -.545E+01 -.810E+02 -.391E-02   0.511E+01 0.820E+02 0.384E-02   0.329E+00 -.933E+00 -.142E-03   0.259E-02 0.825E-02 0.473E-06
   -.295E+02 -.482E+02 -.199E-01   0.302E+02 0.487E+02 0.200E-01   -.703E+00 -.506E+00 -.484E-03   0.670E-02 -.515E-02 0.249E-04
   0.250E+01 0.432E+01 -.247E-02   -.249E+01 -.439E+01 0.246E-02   -.339E-02 0.663E-01 0.179E-04   -.403E-02 0.553E-02 -.283E-04
   -.107E+01 -.691E+01 0.216E-03   0.120E+01 0.699E+01 -.945E-04   -.135E+00 -.106E+00 -.724E-04   0.231E-02 0.118E-01 -.319E-04
   0.227E+02 0.118E+02 -.341E-01   -.233E+02 -.119E+02 0.341E-01   0.592E+00 0.403E-01 -.365E-03   -.153E-02 -.104E-01 0.228E-04
   0.462E+01 0.164E+02 -.204E-02   -.473E+01 -.165E+02 0.200E-02   0.922E-01 0.128E+00 0.120E-03   0.708E-02 0.106E-01 -.275E-04
   -.588E+01 -.548E+02 -.730E-02   0.608E+01 0.558E+02 0.683E-02   -.207E+00 -.105E+01 0.184E-03   0.395E-02 -.694E-02 0.985E-05
   0.273E+02 -.787E+02 -.445E-02   -.274E+02 0.797E+02 0.382E-02   0.152E+00 -.994E+00 0.341E-03   -.107E-01 0.144E-02 -.137E-05
   0.125E+01 0.884E+02 -.249E-02   -.905E+00 -.894E+02 0.215E-02   -.343E+00 0.106E+01 0.162E-04   -.683E-02 -.801E-02 0.652E-05
   -.177E+02 -.583E+02 0.105E-02   0.178E+02 0.585E+02 -.672E-03   -.285E-01 -.259E+00 -.462E-03   0.280E-03 0.163E-01 -.161E-04
   -.822E+00 0.507E+02 -.155E-01   0.687E+00 -.511E+02 0.156E-01   0.116E+00 0.397E+00 -.381E-03   0.776E-02 -.143E-01 0.108E-04
   -.120E+01 0.526E+02 -.907E-02   0.144E+01 -.535E+02 0.836E-02   -.233E+00 0.894E+00 0.677E-03   -.358E-02 0.782E-02 -.136E-04
   0.120E+02 -.303E+01 0.225E-01   -.112E+02 0.316E+01 -.239E-01   -.708E+00 -.989E-01 0.776E-03   -.308E-01 -.198E-01 0.123E-03
   0.253E+02 0.313E+02 0.354E-01   -.259E+02 -.316E+02 -.373E-01   0.626E+00 0.276E+00 0.129E-02   0.394E-02 -.814E-02 0.604E-04
   -.352E+02 -.317E+02 0.982E-02   0.352E+02 0.320E+02 -.122E-01   -.462E-01 -.198E+00 0.148E-02   0.113E-01 -.179E-01 0.168E-03
 -----------------------------------------------------------------------------------------------
   0.123E+00 0.149E+00 -.673E-02   -.426E-13 0.178E-13 -.647E-14   -.112E+00 -.126E+00 0.166E-02   -.596E-02 -.239E-01 0.266E-03
 
 
 POSITION                                       TOTAL-FORCE (eV/Angst)
 -----------------------------------------------------------------------------------
      5.21869      4.79468      0.61335         0.008747     -0.001233      0.000057
      6.28931      0.71409      0.61339         0.001079      0.002402      0.000026
      0.43495      5.67121      0.61341         0.000989      0.005847     -0.000184
      2.44352      4.07072      0.61330         0.008147     -0.003946      0.000218
      4.33667      2.36429      0.61327        -0.004765     -0.005925      0.000198
      1.53221      1.60379      0.61331        -0.004366      0.007486      0.000026
      3.43489     -0.00298      0.61340         0.011399      0.002968     -0.000100
     -0.39456      3.27108      0.61318         0.009768      0.002447      0.000217
      5.76614      2.75552      2.72247        -0.002627     -0.005811      0.000257
      4.75349      6.72899      2.72270        -0.007825     -0.004996     -0.000131
      1.02743      3.66879      2.72245        -0.009884      0.010499      0.000286
      4.91013      0.39965      2.72265         0.004588     -0.004039     -0.000038
      0.17981      1.22953      2.72259        -0.009763     -0.002370     -0.000049
     -0.89299      5.34277      2.72261        -0.003190     -0.001317     -0.000076
      2.92490      1.98016      2.72248         0.002121     -0.013412      0.000139
      1.92552      6.03417      2.72265        -0.012045      0.003946      0.000012
      3.83124      4.38688      2.72258         0.008686      0.002276      0.000190
     -1.47410      7.23385      0.61365         0.010788      0.006362     -0.000321
      3.30462      6.36827      0.61370        -0.003221     -0.004746     -0.000252
      0.05450      7.59423      2.72286        -0.008625      0.003562     -0.000474
 -----------------------------------------------------------------------------------
    total drift:                                0.005955     -0.000856     -0.004806


--------------------------------------------------------------------------------------------------------



  FREE ENERGIE OF THE ION-ELECTRON SYSTEM (eV)
  ---------------------------------------------------
  free  energy   TOTEN  =      -178.15572865 eV

  energy  without entropy=     -178.03967113  energy(sigma->0) =     -178.09769989
 
 d Force =-0.4429373E-04[-0.497E-04,-0.389E-04]  d Energy =-0.7651765E-04 0.322E-04
 d Force = 0.3458162E-01[ 0.345E-01, 0.347E-01]  d Ewald  =-0.8955101E+00 0.930E+00


--------------------------------------------------------------------------------------------------------


    POTLOK:  cpu time    0.0436: real time    0.0437


--------------------------------------------------------------------------------------------------------


