 running on    4 total cores
 distrk:  each k-point on    4 cores,    1 groups
 distr:  one band on    1 cores,    4 groups
 using from now: INCAR     
 vasp.5.4.4.18Apr17-6-g9f103f2a35 (build Jul 11 2019 11:52:51) complex          
  
 POSCAR found type information on POSCAR  V  Fe
 POSCAR found :  2 types and      20 ions
 scaLAPACK will be used

 ----------------------------------------------------------------------------- 
|                                                                             |
|  ADVICE TO THIS USER RUNNING 'VASP/VAMP'   (HEAR YOUR MASTER'S VOICE ...):  |
|                                                                             |
|      You have a (more or less) 'large supercell' and for larger cells       |
|      it might be more efficient to use real space projection opertators     |
|      So try LREAL= Auto  in the INCAR   file.                               |
|      Mind:          For very  accurate calculation you might also keep the  |
|      reciprocal projection scheme          (i.e. LREAL=.FALSE.)             |
|                                                                             |
 ----------------------------------------------------------------------------- 

 LDA part: xc-table for Pade appr. of Perdew
 POSCAR, INCAR and KPOINTS ok, starting setup
 FFT: planning ...
 WAVECAR not read
 entering main loop
       N       E                     dE             d eps       ncg     rms          rms(c)
DAV:   1     0.630477423541E+03    0.63048E+03   -0.22671E+04  1088   0.109E+03
DAV:   2    -0.731280549809E+02   -0.70361E+03   -0.68098E+03  1088   0.340E+02
DAV:   3    -0.188798508866E+03   -0.11567E+03   -0.10894E+03  1840   0.146E+02
DAV:   4    -0.200631799914E+03   -0.11833E+02   -0.11141E+02  1784   0.597E+01
DAV:   5    -0.201303679517E+03   -0.67188E+00   -0.64520E+00  1768   0.116E+01    0.560E+01
DAV:   6    -0.238349968528E+03   -0.37046E+02   -0.51367E+02  2112   0.191E+02    0.881E+01
DAV:   7    -0.178390930104E+03    0.59959E+02   -0.40479E+02  2096   0.139E+02    0.236E+01
DAV:   8    -0.207469476462E+03   -0.29079E+02   -0.35521E+02  2136   0.132E+02    0.593E+01
DAV:   9    -0.177736724916E+03    0.29733E+02   -0.19985E+02  2128   0.102E+02    0.260E+01
DAV:  10    -0.175199398594E+03    0.25373E+01   -0.29861E+01  2160   0.403E+01    0.105E+01
DAV:  11    -0.175001986968E+03    0.19741E+00   -0.33256E+00  1896   0.123E+01    0.924E+00
DAV:  12    -0.174862399776E+03    0.13959E+00   -0.14500E+00  1800   0.927E+00    0.841E+00
DAV:  13    -0.174782909462E+03    0.79490E-01   -0.20767E+00  2008   0.109E+01    0.758E+00
DAV:  14    -0.174498137999E+03    0.28477E+00   -0.26482E+00  1904   0.124E+01    0.574E+00
DAV:  15    -0.174376499168E+03    0.12164E+00   -0.94137E-01  1864   0.687E+00    0.373E+00
DAV:  16    -0.174365294703E+03    0.11204E-01   -0.25872E-01  2176   0.368E+00    0.264E+00
DAV:  17    -0.174395376023E+03   -0.30081E-01   -0.43746E-01  2176   0.535E+00    0.307E+00
DAV:  18    -0.174386732925E+03    0.86431E-02   -0.16386E-01  2176   0.282E+00    0.287E+00
DAV:  19    -0.174361341091E+03    0.25392E-01   -0.81713E-02  2160   0.266E+00    0.187E+00
DAV:  20    -0.174345996147E+03    0.15345E-01   -0.56482E-02  2000   0.195E+00    0.880E-01
DAV:  21    -0.174345290701E+03    0.70545E-03   -0.11145E-02  2000   0.782E-01    0.645E-01
DAV:  22    -0.174344328226E+03    0.96248E-03   -0.35443E-03  1896   0.430E-01    0.488E-01
DAV:  23    -0.174343877952E+03    0.45027E-03   -0.97095E-04  2096   0.219E-01    0.344E-01
DAV:  24    -0.174343647235E+03    0.23072E-03   -0.80338E-04  1824   0.184E-01    0.263E-01
DAV:  25    -0.174343386563E+03    0.26067E-03   -0.68520E-04  2112   0.190E-01    0.893E-02
DAV:  26    -0.174343369559E+03    0.17004E-04   -0.13648E-04  1696   0.766E-02    0.511E-02
DAV:  27    -0.174343356775E+03    0.12784E-04   -0.24831E-05   904   0.457E-02    0.243E-02
DAV:  28    -0.174343355249E+03    0.15266E-05   -0.14693E-05   736   0.259E-02
   1 F= -.17434336E+03 E0= -.17428294E+03  d E =-.174343E+03
 curvature:   0.00 expect dE= 0.000E+00 dE for cont linesearch  0.000E+00
 trial: gam= 0.00000 g(F)=  0.774E-01 g(S)=  0.329E+01 ort = 0.000E+00 (trialstep = 0.100E+01)
 search vector abs. value=  0.337E+01
 bond charge predicted
       N       E                     dE             d eps       ncg     rms          rms(c)
DAV:   1    -0.178648445932E+03   -0.43051E+01   -0.13387E+02  1088   0.512E+01    0.112E+01
DAV:   2    -0.190740335272E+03   -0.12092E+02   -0.69367E+01  2128   0.787E+01    0.419E+01
DAV:   3    -0.177220714285E+03    0.13520E+02   -0.50010E+01  2120   0.638E+01    0.619E+00
DAV:   4    -0.178837671255E+03   -0.16170E+01   -0.18714E+01  2168   0.286E+01    0.159E+01
DAV:   5    -0.177685694667E+03    0.11520E+01   -0.77057E+00  2032   0.254E+01    0.962E+00
DAV:   6    -0.177192809948E+03    0.49288E+00   -0.25622E+00  2016   0.151E+01    0.472E+00
DAV:   7    -0.177140824246E+03    0.51986E-01   -0.11505E+00  2176   0.821E+00    0.266E+00
DAV:   8    -0.177097106251E+03    0.43718E-01   -0.38925E-01  2160   0.496E+00    0.146E+00
DAV:   9    -0.177091626074E+03    0.54802E-02   -0.45957E-02  1920   0.219E+00    0.121E+00
DAV:  10    -0.177087137936E+03    0.44881E-02   -0.11535E-02  1936   0.960E-01    0.847E-01
DAV:  11    -0.177090154134E+03   -0.30162E-02   -0.38582E-02  1736   0.129E+00    0.852E-01
DAV:  12    -0.177084992704E+03    0.51614E-02   -0.32522E-02  1720   0.132E+00    0.489E-01
DAV:  13    -0.177084881448E+03    0.11126E-03   -0.46350E-03  1760   0.493E-01    0.380E-01
DAV:  14    -0.177084471016E+03    0.41043E-03   -0.18075E-03  1768   0.340E-01    0.288E-01
DAV:  15    -0.177084282920E+03    0.18810E-03   -0.72522E-04  2136   0.191E-01    0.182E-01
DAV:  16    -0.177084173923E+03    0.10900E-03   -0.32791E-04  2104   0.135E-01    0.107E-01
DAV:  17    -0.177084137379E+03    0.36544E-04   -0.17371E-04  2008   0.917E-02    0.480E-02
DAV:  18    -0.177084126752E+03    0.10627E-04   -0.62624E-05  1368   0.584E-02    0.274E-02
DAV:  19    -0.177084124510E+03    0.22411E-05   -0.16046E-05   704   0.303E-02
   2 F= -.17708412E+03 E0= -.17703131E+03  d E =-.274077E+01
 trial-energy change:   -2.740769  1 .order   -2.561624   -3.365246   -1.758001
 step:   1.5390(harm=  2.0938)  dis= 0.03879  next Energy=  -177.585976 (dE=-0.324E+01)
 bond charge predicted
       N       E                     dE             d eps       ncg     rms          rms(c)
DAV:   1    -0.178170332181E+03   -0.10862E+01   -0.37613E+01  1096   0.295E+01    0.708E+00
DAV:   2    -0.184902130283E+03   -0.67318E+01   -0.31082E+01  2128   0.565E+01    0.320E+01
DAV:   3    -0.177673058130E+03    0.72291E+01   -0.25152E+01  2160   0.488E+01    0.364E+00
DAV:   4    -0.178072234735E+03   -0.39918E+00   -0.57230E+00  2032   0.157E+01    0.658E+00
DAV:   5    -0.177783813572E+03    0.28842E+00   -0.16131E+00  2000   0.110E+01    0.381E+00
DAV:   6    -0.177770645514E+03    0.13168E-01   -0.53100E-01  2112   0.699E+00    0.315E+00
DAV:   7    -0.177713832819E+03    0.56813E-01   -0.24524E-01  2064   0.503E+00    0.914E-01
DAV:   8    -0.177708958316E+03    0.48745E-02   -0.72211E-02  2104   0.213E+00    0.556E-01
DAV:   9    -0.177708361555E+03    0.59676E-03   -0.11985E-02  1920   0.113E+00    0.485E-01
DAV:  10    -0.177707196728E+03    0.11648E-02   -0.81814E-03  1952   0.903E-01    0.288E-01
DAV:  11    -0.177708145363E+03   -0.94864E-03   -0.11031E-02  2056   0.795E-01    0.355E-01
DAV:  12    -0.177706917303E+03    0.12281E-02   -0.78910E-03  1696   0.650E-01    0.167E-01
DAV:  13    -0.177706958737E+03   -0.41434E-04   -0.11159E-03  1760   0.242E-01    0.140E-01
DAV:  14    -0.177706874042E+03    0.84695E-04   -0.43533E-04  1760   0.168E-01    0.909E-02
DAV:  15    -0.177706847790E+03    0.26252E-04   -0.15117E-04  1840   0.900E-02    0.465E-02
DAV:  16    -0.177706835633E+03    0.12157E-04   -0.47638E-05  1088   0.585E-02    0.284E-02
DAV:  17    -0.177706835044E+03    0.58939E-06   -0.37287E-05   952   0.390E-02
   3 F= -.17770684E+03 E0= -.17764804E+03  d E =-.336348E+01
 curvature:  -0.78 expect dE=-0.323E+00 dE for cont linesearch -0.855E-01
 ZBRENT: increasing intervall
 opt :   2.6171  next Energy=  -177.123553 (dE=-0.278E+01)
 bond charge predicted
       N       E                     dE             d eps       ncg     rms          rms(c)
DAV:   1    -0.178601109495E+03   -0.89427E+00   -0.14819E+02  1096   0.614E+01    0.148E+01
DAV:   2    -0.202247515675E+03   -0.23646E+02   -0.11946E+02  2016   0.120E+02    0.538E+01
DAV:   3    -0.177425449834E+03    0.24822E+02   -0.72979E+01  2040   0.744E+01    0.125E+01
DAV:   4    -0.177756046558E+03   -0.33060E+00   -0.21298E+01  2120   0.312E+01    0.965E+00
DAV:   5    -0.177537822459E+03    0.21822E+00   -0.64785E+00  1984   0.224E+01    0.929E+00
DAV:   6    -0.177389143141E+03    0.14868E+00   -0.39067E+00  1976   0.188E+01    0.828E+00
DAV:   7    -0.176991873412E+03    0.39727E+00   -0.22061E+00  2080   0.143E+01    0.300E+00
DAV:   8    -0.176963111484E+03    0.28762E-01   -0.57062E-01  1968   0.578E+00    0.252E+00
DAV:   9    -0.176951261796E+03    0.11850E-01   -0.97043E-02  1920   0.329E+00    0.212E+00
DAV:  10    -0.176939496758E+03    0.11765E-01   -0.41097E-02  1928   0.212E+00    0.168E+00
DAV:  11    -0.176934493124E+03    0.50036E-02   -0.31215E-02  2176   0.136E+00    0.123E+00
DAV:  12    -0.176928647019E+03    0.58461E-02   -0.23239E-02  2168   0.115E+00    0.738E-01
DAV:  13    -0.176928184941E+03    0.46208E-03   -0.47129E-03  1952   0.518E-01    0.620E-01
DAV:  14    -0.176927213982E+03    0.97096E-03   -0.20085E-03  2092   0.333E-01    0.410E-01
DAV:  15    -0.176926869791E+03    0.34419E-03   -0.94117E-04  2168   0.206E-01    0.283E-01
DAV:  16    -0.176926556253E+03    0.31354E-03   -0.81447E-04  2176   0.205E-01    0.128E-01
DAV:  17    -0.176926532372E+03    0.23881E-04   -0.14079E-04  1624   0.886E-02    0.976E-02
DAV:  18    -0.176926493266E+03    0.39106E-04   -0.92511E-05  1760   0.742E-02    0.364E-02
DAV:  19    -0.176926491926E+03    0.13401E-05   -0.27180E-05   888   0.381E-02
   4 F= -.17692649E+03 E0= -.17686670E+03  d E =-.258314E+01
 curvature:   5.30 expect dE= 0.148E+02 dE for cont linesearch  0.559E+01
 ZBRENT: bracketing found
 ZBRENT: interpolating
 opt :   1.8023  next Energy=  -177.786929 (dE=-0.344E+01)
 bond charge predicted
       N       E                     dE             d eps       ncg     rms          rms(c)
DAV:   1    -0.179144486007E+03   -0.22180E+01   -0.89075E+01  1136   0.514E+01    0.144E+01
DAV:   2    -0.209480988557E+03   -0.30337E+02   -0.19487E+02  2016   0.130E+02    0.564E+01
DAV:   3    -0.177200531446E+03    0.32280E+02   -0.78188E+01  2056   0.616E+01    0.528E+00
DAV:   4    -0.178374729180E+03   -0.11742E+01   -0.12776E+01  2032   0.243E+01    0.883E+00
DAV:   5    -0.177946708860E+03    0.42802E+00   -0.46876E+00  2096   0.213E+01    0.485E+00
DAV:   6    -0.177950155102E+03   -0.34462E-02   -0.18348E+00  2176   0.130E+01    0.393E+00
DAV:   7    -0.177796450397E+03    0.15370E+00   -0.10714E+00  2128   0.847E+00    0.166E+00
DAV:   8    -0.177801348627E+03   -0.48982E-02   -0.29269E-01  2064   0.520E+00    0.192E+00
DAV:   9    -0.177788735194E+03    0.12613E-01   -0.15379E-01  2032   0.404E+00    0.121E+00
DAV:  10    -0.177776625780E+03    0.12109E-01   -0.80173E-02  2016   0.223E+00    0.356E-01
DAV:  11    -0.177777265619E+03   -0.63984E-03   -0.12122E-02  1768   0.798E-01    0.353E-01
DAV:  12    -0.177776352560E+03    0.91306E-03   -0.62595E-03  1744   0.624E-01    0.168E-01
DAV:  13    -0.177776554950E+03   -0.20239E-03   -0.30938E-03  1752   0.412E-01    0.156E-01
DAV:  14    -0.177776328800E+03    0.22615E-03   -0.13897E-03  1944   0.301E-01    0.403E-02
DAV:  15    -0.177776345894E+03   -0.17094E-04   -0.31154E-04  1728   0.125E-01    0.449E-02
DAV:  16    -0.177776335612E+03    0.10282E-04   -0.11888E-04  1528   0.831E-02    0.267E-02
DAV:  17    -0.177776335149E+03    0.46299E-06   -0.25118E-05   800   0.501E-02
   5 F= -.17777634E+03 E0= -.17771161E+03  d E =-.343298E+01
 curvature:  -0.08 expect dE=-0.341E-01 dE for cont linesearch -0.241E-04
 trial: gam= 0.12376 g(F)=  0.680E-01 g(S)=  0.381E+00 ort = 0.327E-01 (trialstep = 0.116E+01)
 search vector abs. value=  0.509E+00
 bond charge predicted
       N       E                     dE             d eps       ncg     rms          rms(c)
DAV:   1    -0.178847909250E+03   -0.10716E+01   -0.40112E+01  1096   0.427E+01    0.134E+01
DAV:   2    -0.209591041028E+03   -0.30743E+02   -0.19222E+02  2008   0.123E+02    0.575E+01
DAV:   3    -0.177369336267E+03    0.32222E+02   -0.71372E+01  2040   0.541E+01    0.509E+00
DAV:   4    -0.178411790106E+03   -0.10425E+01   -0.11537E+01  2096   0.217E+01    0.835E+00
DAV:   5    -0.178022143266E+03    0.38965E+00   -0.36441E+00  2096   0.176E+01    0.386E+00
DAV:   6    -0.178037691141E+03   -0.15548E-01   -0.12408E+00  2144   0.100E+01    0.327E+00
DAV:   7    -0.177935036008E+03    0.10266E+00   -0.70055E-01  2128   0.638E+00    0.136E+00
DAV:   8    -0.177931129375E+03    0.39066E-02   -0.17887E-01  2120   0.329E+00    0.124E+00
DAV:   9    -0.177931403277E+03   -0.27390E-03   -0.86311E-02  2096   0.279E+00    0.131E+00
DAV:  10    -0.177921122295E+03    0.10281E-01   -0.44366E-02  2032   0.204E+00    0.403E-01
DAV:  11    -0.177921678390E+03   -0.55609E-03   -0.14334E-02  1888   0.867E-01    0.425E-01
DAV:  12    -0.177920348185E+03    0.13302E-02   -0.84004E-03  1776   0.657E-01    0.152E-01
DAV:  13    -0.177920429201E+03   -0.81016E-04   -0.25826E-03  1744   0.358E-01    0.126E-01
DAV:  14    -0.177920354551E+03    0.74649E-04   -0.68090E-04  1888   0.205E-01    0.496E-02
DAV:  15    -0.177920363480E+03   -0.89286E-05   -0.26327E-04  1704   0.109E-01    0.489E-02
DAV:  16    -0.177920360849E+03    0.26308E-05   -0.10949E-04  1560   0.795E-02    0.213E-02
DAV:  17    -0.177920358435E+03    0.24145E-05   -0.19235E-05   652   0.441E-02
   6 F= -.17792036E+03 E0= -.17785014E+03  d E =-.144023E+00
 trial-energy change:   -0.144023  1 .order   -0.150522   -0.525916    0.224872
 step:   0.8000(harm=  0.8129)  dis= 0.01608  next Energy=  -177.955480 (dE=-0.179E+00)
 bond charge predicted
       N       E                     dE             d eps       ncg     rms          rms(c)
DAV:   1    -0.178045415105E+03   -0.12505E+00   -0.37437E+00  1096   0.127E+01    0.409E+00
DAV:   2    -0.181632403543E+03   -0.35870E+01   -0.15461E+01  2176   0.379E+01    0.240E+01
DAV:   3    -0.177928310843E+03    0.37041E+01   -0.11805E+01  2176   0.339E+01    0.250E+00
DAV:   4    -0.177983183631E+03   -0.54873E-01   -0.14483E+00  2008   0.794E+00    0.191E+00
DAV:   5    -0.177980783800E+03    0.23998E-02   -0.21038E-01  1904   0.476E+00    0.212E+00
DAV:   6    -0.177960459098E+03    0.20325E-01   -0.85014E-02  1920   0.309E+00    0.106E+00
DAV:   7    -0.177957034219E+03    0.34249E-02   -0.42377E-02  2144   0.163E+00    0.581E-01
DAV:   8    -0.177954506785E+03    0.25274E-02   -0.22710E-02  2144   0.106E+00    0.220E-01
DAV:   9    -0.177954811869E+03   -0.30508E-03   -0.40545E-03  1984   0.637E-01    0.306E-01
DAV:  10    -0.177954245394E+03    0.56648E-03   -0.24878E-03  1984   0.505E-01    0.733E-02
DAV:  11    -0.177954379137E+03   -0.13374E-03   -0.16282E-03  1768   0.284E-01    0.117E-01
DAV:  12    -0.177954236255E+03    0.14288E-03   -0.83870E-04  1784   0.223E-01    0.444E-02
DAV:  13    -0.177954238222E+03   -0.19671E-05   -0.13628E-04  1664   0.856E-02    0.420E-02
DAV:  14    -0.177954231864E+03    0.63585E-05   -0.19138E-05   732   0.489E-02
   7 F= -.17795423E+03 E0= -.17788595E+03  d E =-.177897E+00
 curvature:  -0.46 expect dE=-0.100E+00 dE for cont linesearch -0.179E-04
 trial: gam= 0.46316 g(F)=  0.251E-01 g(S)=  0.195E+00 ort = 0.447E-02 (trialstep = 0.109E+01)
 search vector abs. value=  0.334E+00
 bond charge predicted
       N       E                     dE             d eps       ncg     rms          rms(c)
DAV:   1    -0.178428164067E+03   -0.47393E+00   -0.20974E+01  1088   0.233E+01    0.683E+00
DAV:   2    -0.186674945250E+03   -0.82468E+01   -0.37981E+01  2128   0.617E+01    0.344E+01
DAV:   3    -0.178072744613E+03    0.86022E+01   -0.26711E+01  2152   0.505E+01    0.493E+00
DAV:   4    -0.178210908514E+03   -0.13816E+00   -0.46785E+00  1904   0.136E+01    0.350E+00
DAV:   5    -0.178190645564E+03    0.20263E-01   -0.85420E-01  1904   0.886E+00    0.386E+00
DAV:   6    -0.178137759505E+03    0.52886E-01   -0.45476E-01  1904   0.704E+00    0.281E+00
DAV:   7    -0.178102996623E+03    0.34763E-01   -0.23374E-01  2080   0.457E+00    0.110E+00
DAV:   8    -0.178094682264E+03    0.83144E-02   -0.93003E-02  2120   0.238E+00    0.682E-01
DAV:   9    -0.178094949783E+03   -0.26752E-03   -0.17911E-02  2000   0.137E+00    0.726E-01
DAV:  10    -0.178092563697E+03    0.23861E-02   -0.87886E-03  2000   0.924E-01    0.393E-01
DAV:  11    -0.178092822422E+03   -0.25872E-03   -0.66169E-03  2040   0.601E-01    0.369E-01
DAV:  12    -0.178091892988E+03    0.92943E-03   -0.43074E-03  2128   0.492E-01    0.149E-01
DAV:  13    -0.178091883629E+03    0.93587E-05   -0.65267E-04  1776   0.189E-01    0.131E-01
DAV:  14    -0.178091850314E+03    0.33316E-04   -0.14319E-04  1656   0.980E-02    0.967E-02
DAV:  15    -0.178091834103E+03    0.16210E-04   -0.11521E-04  1656   0.770E-02    0.744E-02
DAV:  16    -0.178091805899E+03    0.28204E-04   -0.10018E-04  1712   0.794E-02    0.246E-02
DAV:  17    -0.178091802120E+03    0.37792E-05   -0.17964E-05   724   0.365E-02
   8 F= -.17809180E+03 E0= -.17802162E+03  d E =-.137570E+00
 trial-energy change:   -0.137570  1 .order   -0.140694   -0.242124   -0.039263
 step:   1.3257(harm=  1.2990)  dis= 0.02366  next Energy=  -178.096051 (dE=-0.142E+00)
 bond charge predicted
       N       E                     dE             d eps       ncg     rms          rms(c)
DAV:   1    -0.178112669199E+03   -0.20863E-01   -0.10224E+00  1088   0.527E+00    0.152E+00
DAV:   2    -0.178602647131E+03   -0.48998E+00   -0.20615E+00  2168   0.138E+01    0.953E+00
DAV:   3    -0.178099209889E+03    0.50344E+00   -0.16531E+00  2176   0.124E+01    0.101E+00
DAV:   4    -0.178104224182E+03   -0.50143E-02   -0.17515E-01  2036   0.337E+00    0.994E-01
DAV:   5    -0.178101707324E+03    0.25169E-02   -0.44943E-02  1904   0.225E+00    0.774E-01
DAV:   6    -0.178097501659E+03    0.42057E-02   -0.26001E-02  1992   0.143E+00    0.310E-01
DAV:   7    -0.178097369023E+03    0.13264E-03   -0.66187E-03  2160   0.658E-01    0.235E-01
DAV:   8    -0.178096895180E+03    0.47384E-03   -0.37599E-03  2160   0.470E-01    0.826E-02
DAV:   9    -0.178096962170E+03   -0.66990E-04   -0.89791E-04  2000   0.304E-01    0.128E-01
DAV:  10    -0.178096843098E+03    0.11907E-03   -0.54603E-04  1968   0.226E-01    0.250E-02
DAV:  11    -0.178096845411E+03   -0.23126E-05   -0.12717E-04  1616   0.780E-02    0.247E-02
DAV:  12    -0.178096839390E+03    0.60211E-05   -0.20932E-05   796   0.520E-02
   9 F= -.17809684E+03 E0= -.17802760E+03  d E =-.142608E+00
 curvature:  -0.96 expect dE=-0.446E-01 dE for cont linesearch -0.845E-04
 trial: gam= 0.37125 g(F)=  0.107E-01 g(S)=  0.359E-01 ort = 0.542E-02 (trialstep = 0.114E+01)
 search vector abs. value=  0.966E-01
 bond charge predicted
       N       E                     dE             d eps       ncg     rms          rms(c)
DAV:   1    -0.178231635392E+03   -0.13479E+00   -0.66336E+00  1112   0.136E+01    0.412E+00
DAV:   2    -0.181911675601E+03   -0.36800E+01   -0.18204E+01  2152   0.386E+01    0.236E+01
DAV:   3    -0.178093251899E+03    0.38184E+01   -0.11447E+01  2072   0.290E+01    0.183E+00
DAV:   4    -0.178200207802E+03   -0.10696E+00   -0.11846E+00  2128   0.820E+00    0.326E+00
DAV:   5    -0.178143401653E+03    0.56806E-01   -0.35615E-01  2048   0.633E+00    0.147E+00
DAV:   6    -0.178131207069E+03    0.12195E-01   -0.20763E-01  2096   0.328E+00    0.843E-01
DAV:   7    -0.178128074526E+03    0.31325E-02   -0.48478E-02  2120   0.184E+00    0.663E-01
DAV:   8    -0.178125063317E+03    0.30112E-02   -0.19640E-02  2096   0.134E+00    0.271E-01
DAV:   9    -0.178125383232E+03   -0.31992E-03   -0.82326E-03  2096   0.794E-01    0.296E-01
DAV:  10    -0.178124583688E+03    0.79954E-03   -0.44463E-03  2048   0.518E-01    0.580E-02
DAV:  11    -0.178124616690E+03   -0.33002E-04   -0.76996E-04  1776   0.197E-01    0.670E-02
DAV:  12    -0.178124580077E+03    0.36612E-04   -0.26185E-04  1768   0.128E-01    0.281E-02
DAV:  13    -0.178124578451E+03    0.16259E-05   -0.80002E-05  1440   0.672E-02
  10 F= -.17812458E+03 E0= -.17806057E+03  d E =-.277391E-01
 trial-energy change:   -0.027739  1 .order   -0.026429   -0.055157    0.002299
 step:   1.0957(harm=  1.0904)  dis= 0.01357  next Energy=  -178.124619 (dE=-0.278E-01)
 bond charge predicted
       N       E                     dE             d eps       ncg     rms          rms(c)
DAV:   1    -0.178124706926E+03   -0.12685E-03   -0.81120E-03  1116   0.467E-01    0.146E-01
DAV:   2    -0.178129740173E+03   -0.50332E-02   -0.21001E-02  2176   0.135E+00    0.967E-01
DAV:   3    -0.178124599011E+03    0.51412E-02   -0.16474E-02  2176   0.120E+00    0.103E-01
DAV:   4    -0.178124619024E+03   -0.20013E-04   -0.13038E-03  1900   0.308E-01    0.830E-02
DAV:   5    -0.178124609438E+03    0.95868E-05   -0.44374E-04  1872   0.200E-01    0.631E-02
DAV:   6    -0.178124576406E+03    0.33032E-04   -0.27160E-04  1744   0.121E-01    0.250E-02
DAV:   7    -0.178124575838E+03    0.56820E-06   -0.40096E-05  1032   0.558E-02
  11 F= -.17812458E+03 E0= -.17806032E+03  d E =-.277364E-01
 curvature:  -1.07 expect dE=-0.294E-01 dE for cont linesearch -0.134E-06
 trial: gam= 0.77956 g(F)=  0.747E-02 g(S)=  0.200E-01 ort = 0.110E-03 (trialstep = 0.113E+01)
 search vector abs. value=  0.864E-01
 bond charge predicted
       N       E                     dE             d eps       ncg     rms          rms(c)
DAV:   1    -0.178190232583E+03   -0.65656E-01   -0.56994E+00  1088   0.102E+01    0.222E+00
DAV:   2    -0.178756384143E+03   -0.56615E+00   -0.28938E+00  2176   0.157E+01    0.102E+01
DAV:   3    -0.178158490952E+03    0.59789E+00   -0.21409E+00  2176   0.144E+01    0.153E+00
DAV:   4    -0.178175764903E+03   -0.17274E-01   -0.40254E-01  2032   0.533E+00    0.205E+00
DAV:   5    -0.178163414020E+03    0.12351E-01   -0.21279E-01  2000   0.490E+00    0.170E+00
DAV:   6    -0.178140525457E+03    0.22889E-01   -0.11375E-01  2008   0.324E+00    0.446E-01
DAV:   7    -0.178140877224E+03   -0.35177E-03   -0.22301E-02  1968   0.111E+00    0.377E-01
DAV:   8    -0.178139572140E+03    0.13051E-02   -0.95188E-03  2152   0.775E-01    0.125E-01
DAV:   9    -0.178139752361E+03   -0.18022E-03   -0.22304E-03  2016   0.457E-01    0.206E-01
DAV:  10    -0.178139462945E+03    0.28942E-03   -0.13494E-03  2016   0.351E-01    0.467E-02
DAV:  11    -0.178139464600E+03   -0.16553E-05   -0.34495E-04  1760   0.136E-01    0.429E-02
DAV:  12    -0.178139452941E+03    0.11659E-04   -0.10741E-04  1592   0.930E-02    0.219E-02
DAV:  13    -0.178139448209E+03    0.47325E-05   -0.27776E-05   860   0.481E-02
  12 F= -.17813945E+03 E0= -.17808136E+03  d E =-.148724E-01
 trial-energy change:   -0.014872  1 .order   -0.013408   -0.031122    0.004306
 step:   1.0157(harm=  0.9907)  dis= 0.01280  next Energy=  -178.139661 (dE=-0.151E-01)
 bond charge predicted
       N       E                     dE             d eps       ncg     rms          rms(c)
DAV:   1    -0.178140176378E+03   -0.72344E-03   -0.56843E-02  1088   0.104E+00    0.229E-01
DAV:   2    -0.178146979528E+03   -0.68031E-02   -0.33807E-02  2176   0.168E+00    0.113E+00
DAV:   3    -0.178139858589E+03    0.71209E-02   -0.25095E-02  2176   0.149E+00    0.168E-01
DAV:   4    -0.178140001295E+03   -0.14271E-03   -0.40672E-03  1968   0.551E-01    0.206E-01
DAV:   5    -0.178139877298E+03    0.12400E-03   -0.21900E-03  1952   0.499E-01    0.166E-01
DAV:   6    -0.178139642412E+03    0.23489E-03   -0.12101E-03  1992   0.324E-01    0.413E-02
DAV:   7    -0.178139651599E+03   -0.91874E-05   -0.26174E-04  1976   0.121E-01    0.441E-02
DAV:   8    -0.178139632544E+03    0.19056E-04   -0.12506E-04  1752   0.888E-02    0.141E-02
DAV:   9    -0.178139633273E+03   -0.72918E-06   -0.17949E-05   700   0.539E-02
  13 F= -.17813963E+03 E0= -.17808110E+03  d E =-.150574E-01
 curvature:  -1.50 expect dE=-0.121E-01 dE for cont linesearch -0.684E-08
 trial: gam= 0.02878 g(F)=  0.567E-02 g(S)=  0.237E-02 ort = 0.199E-04 (trialstep = 0.111E+01)
 search vector abs. value=  0.812E-02
 bond charge predicted
       N       E                     dE             d eps       ncg     rms          rms(c)
DAV:   1    -0.178149192183E+03   -0.95596E-02   -0.55785E-01  1088   0.306E+00    0.749E-01
DAV:   2    -0.178271804237E+03   -0.12261E+00   -0.53590E-01  2176   0.694E+00    0.471E+00
DAV:   3    -0.178147265737E+03    0.12454E+00   -0.40886E-01  2176   0.612E+00    0.561E-01
DAV:   4    -0.178147511488E+03   -0.24575E-03   -0.35933E-02  1912   0.157E+00    0.404E-01
DAV:   5    -0.178147750441E+03   -0.23895E-03   -0.13564E-02  1888   0.111E+00    0.393E-01
DAV:   6    -0.178146396463E+03    0.13540E-02   -0.88368E-03  1920   0.785E-01    0.133E-01
DAV:   7    -0.178146481391E+03   -0.84928E-04   -0.28051E-03  1776   0.384E-01    0.143E-01
DAV:   8    -0.178146260338E+03    0.22105E-03   -0.13181E-03  1928   0.262E-01    0.334E-02
DAV:   9    -0.178146295054E+03   -0.34716E-04   -0.36419E-04  2088   0.150E-01    0.753E-02
DAV:  10    -0.178146260972E+03    0.34082E-04   -0.19543E-04  1984   0.137E-01    0.323E-02
DAV:  11    -0.178146251853E+03    0.91191E-05   -0.29336E-05   936   0.639E-02
  14 F= -.17814625E+03 E0= -.17808754E+03  d E =-.661858E-02
 trial-energy change:   -0.006619  1 .order   -0.006616   -0.008892   -0.004341
 step:   2.1597(harm=  2.1597)  dis= 0.01305  next Energy=  -178.148320 (dE=-0.869E-02)
 bond charge predicted
       N       E                     dE             d eps       ncg     rms          rms(c)
DAV:   1    -0.178150993372E+03   -0.47324E-02   -0.50768E-01  1088   0.293E+00    0.718E-01
DAV:   2    -0.178263880773E+03   -0.11289E+00   -0.49638E-01  2176   0.666E+00    0.452E+00
DAV:   3    -0.178149256063E+03    0.11462E+00   -0.37787E-01  2176   0.587E+00    0.536E-01
DAV:   4    -0.178149434115E+03   -0.17805E-03   -0.32406E-02  1896   0.150E+00    0.381E-01
DAV:   5    -0.178149736629E+03   -0.30251E-03   -0.12760E-02  1872   0.108E+00    0.380E-01
DAV:   6    -0.178148467159E+03    0.12695E-02   -0.81796E-03  1928   0.761E-01    0.128E-01
DAV:   7    -0.178148547325E+03   -0.80166E-04   -0.26449E-03  1776   0.373E-01    0.140E-01
DAV:   8    -0.178148339391E+03    0.20793E-03   -0.12303E-03  1960   0.256E-01    0.320E-02
DAV:   9    -0.178148368972E+03   -0.29581E-04   -0.32863E-04  2072   0.140E-01    0.695E-02
DAV:  10    -0.178148339939E+03    0.29034E-04   -0.17926E-04  1968   0.130E-01    0.322E-02
DAV:  11    -0.178148330931E+03    0.90073E-05   -0.26971E-05   896   0.635E-02
  15 F= -.17814833E+03 E0= -.17808956E+03  d E =-.869766E-02
 curvature:  -1.09 expect dE=-0.853E-02 dE for cont linesearch -0.552E-07
 trial: gam= 0.97316 g(F)=  0.110E-02 g(S)=  0.672E-02 ort =-0.203E-04 (trialstep = 0.690E+00)
 search vector abs. value=  0.155E-01
 bond charge predicted
       N       E                     dE             d eps       ncg     rms          rms(c)
DAV:   1    -0.178160109030E+03   -0.11769E-01   -0.47050E-01  1192   0.405E+00    0.125E+00
DAV:   2    -0.178523309216E+03   -0.36320E+00   -0.16359E+00  2168   0.116E+01    0.800E+00
DAV:   3    -0.178150659276E+03    0.37265E+00   -0.12060E+00  2176   0.988E+00    0.769E-01
DAV:   4    -0.178154134303E+03   -0.34750E-02   -0.90109E-02  1876   0.248E+00    0.712E-01
DAV:   5    -0.178153134731E+03    0.99957E-03   -0.25714E-02  1856   0.166E+00    0.482E-01
DAV:   6    -0.178151219757E+03    0.19150E-02   -0.13646E-02  1960   0.907E-01    0.176E-01
DAV:   7    -0.178151235508E+03   -0.15750E-04   -0.25480E-03  2016   0.406E-01    0.160E-01
DAV:   8    -0.178151002000E+03    0.23351E-03   -0.15570E-03  2176   0.303E-01    0.580E-02
DAV:   9    -0.178151042412E+03   -0.40413E-04   -0.46546E-04  2064   0.215E-01    0.986E-02
DAV:  10    -0.178150974193E+03    0.68219E-04   -0.28125E-04  2032   0.169E-01    0.224E-02
DAV:  11    -0.178150970752E+03    0.34409E-05   -0.55970E-05  1256   0.543E-02
  16 F= -.17815097E+03 E0= -.17809178E+03  d E =-.263982E-02
 trial-energy change:   -0.002640  1 .order   -0.002721   -0.005390   -0.000053
 step:   0.6979(harm=  0.6972)  dis= 0.00396  next Energy=  -178.150971 (dE=-0.264E-02)
 bond charge predicted
       N       E                     dE             d eps       ncg     rms          rms(c)
DAV:   1    -0.178150973481E+03    0.71230E-06   -0.69190E-05  1144   0.520E-02    0.146E-02
DAV:   2    -0.178151005217E+03   -0.31736E-04   -0.20992E-04  2032   0.121E-01    0.675E-02
DAV:   3    -0.178150974020E+03    0.31197E-04   -0.13881E-04  1992   0.107E-01    0.186E-02
DAV:   4    -0.178150971626E+03    0.23948E-05   -0.11123E-05   612   0.373E-02
  17 F= -.17815097E+03 E0= -.17809178E+03  d E =-.264069E-02
 curvature:  -0.68 expect dE=-0.219E-02 dE for cont linesearch -0.624E-06
 trial: gam= 0.37793 g(F)=  0.130E-02 g(S)=  0.190E-02 ort = 0.119E-03 (trialstep = 0.692E+00)
 search vector abs. value=  0.550E-02
 bond charge predicted
       N       E                     dE             d eps       ncg     rms          rms(c)
DAV:   1    -0.178153529772E+03   -0.25558E-02   -0.12773E-01  1088   0.135E+00    0.207E-01
DAV:   2    -0.178154344499E+03   -0.81473E-03   -0.11520E-02  2120   0.810E-01    0.432E-01
DAV:   3    -0.178153363761E+03    0.98074E-03   -0.76961E-03  2160   0.801E-01    0.225E-01
DAV:   4    -0.178153652443E+03   -0.28868E-03   -0.59471E-03  2144   0.617E-01    0.277E-01
DAV:   5    -0.178152992823E+03    0.65962E-03   -0.40716E-03  2136   0.514E-01    0.110E-01
DAV:   6    -0.178152921078E+03    0.71744E-04   -0.69171E-04  2024   0.255E-01    0.422E-02
DAV:   7    -0.178152918360E+03    0.27182E-05   -0.13143E-04  1840   0.115E-01    0.312E-02
DAV:   8    -0.178152905872E+03    0.12488E-04   -0.49678E-05  1088   0.719E-02    0.106E-02
DAV:   9    -0.178152907307E+03   -0.14354E-05   -0.29055E-05   760   0.380E-02
  18 F= -.17815291E+03 E0= -.17809385E+03  d E =-.193568E-02
 trial-energy change:   -0.001936  1 .order   -0.001937   -0.002245   -0.001629
 step:   2.5227(harm=  2.5227)  dis= 0.00986  next Energy=  -178.155064 (dE=-0.409E-02)
 bond charge predicted
       N       E                     dE             d eps       ncg     rms          rms(c)
DAV:   1    -0.178159196680E+03   -0.62908E-02   -0.89301E-01  1088   0.358E+00    0.549E-01
DAV:   2    -0.178166244016E+03   -0.70473E-02   -0.85345E-02  2152   0.226E+00    0.124E+00
DAV:   3    -0.178157799734E+03    0.84443E-02   -0.56128E-02  2160   0.221E+00    0.555E-01
DAV:   4    -0.178159899360E+03   -0.20996E-02   -0.42023E-02  2144   0.160E+00    0.711E-01
DAV:   5    -0.178155410823E+03    0.44885E-02   -0.28725E-02  2136   0.134E+00    0.289E-01
DAV:   6    -0.178154935555E+03    0.47527E-03   -0.47725E-03  1984   0.673E-01    0.118E-01
DAV:   7    -0.178154933920E+03    0.16343E-05   -0.11041E-03  1984   0.331E-01    0.102E-01
DAV:   8    -0.178154838952E+03    0.94969E-04   -0.56485E-04  2016   0.213E-01    0.312E-02
DAV:   9    -0.178154843264E+03   -0.43119E-05   -0.13140E-04  1928   0.107E-01    0.386E-02
DAV:  10    -0.178154832906E+03    0.10358E-04   -0.47999E-05  1288   0.839E-02    0.199E-02
DAV:  11    -0.178154828544E+03    0.43625E-05   -0.18583E-05   660   0.478E-02
  19 F= -.17815483E+03 E0= -.17809656E+03  d E =-.385692E-02
 curvature:  -2.14 expect dE=-0.213E-02 dE for cont linesearch -0.364E-04
 ZBRENT: interpolating
 opt :   2.3122  next Energy=  -178.154861 (dE=-0.389E-02)
 bond charge predicted
       N       E                     dE             d eps       ncg     rms          rms(c)
DAV:   1    -0.178154923050E+03   -0.90144E-04   -0.11879E-02  1096   0.415E-01    0.631E-02
DAV:   2    -0.178155035411E+03   -0.11236E-03   -0.12077E-03  2144   0.280E-01    0.155E-01
DAV:   3    -0.178154900757E+03    0.13465E-03   -0.78903E-04  2160   0.267E-01    0.621E-02
DAV:   4    -0.178154925662E+03   -0.24904E-04   -0.54474E-04  2140   0.183E-01    0.791E-02
DAV:   5    -0.178154870551E+03    0.55111E-04   -0.35914E-04  2080   0.160E-01    0.368E-02
DAV:   6    -0.178154861535E+03    0.90152E-05   -0.68771E-05  1480   0.847E-02
  20 F= -.17815486E+03 E0= -.17809648E+03  d E =-.388991E-02
 curvature:  -1.89 expect dE=-0.156E-02 dE for cont linesearch -0.319E-06
 trial: gam= 0.27494 g(F)=  0.514E-03 g(S)=  0.312E-03 ort =-0.304E-04 (trialstep = 0.102E+01)
 search vector abs. value=  0.122E-02
 bond charge predicted
       N       E                     dE             d eps       ncg     rms          rms(c)
DAV:   1    -0.178155785605E+03   -0.91505E-03   -0.66674E-02  1088   0.965E-01    0.162E-01
DAV:   2    -0.178158666374E+03   -0.28808E-02   -0.18240E-02  2168   0.115E+00    0.649E-01
DAV:   3    -0.178155685708E+03    0.29807E-02   -0.11839E-02  2160   0.101E+00    0.143E-01
DAV:   4    -0.178155718655E+03   -0.32947E-04   -0.22065E-03  2152   0.421E-01    0.159E-01
DAV:   5    -0.178155722550E+03   -0.38945E-05   -0.15470E-03  2032   0.413E-01    0.174E-01
DAV:   6    -0.178155498837E+03    0.22371E-03   -0.11256E-03  2032   0.310E-01    0.391E-02
DAV:   7    -0.178155510201E+03   -0.11364E-04   -0.21637E-04  2096   0.123E-01    0.455E-02
DAV:   8    -0.178155492832E+03    0.17369E-04   -0.90093E-05  1736   0.918E-02    0.170E-02
DAV:   9    -0.178155490717E+03    0.21151E-05   -0.11447E-05   624   0.388E-02
  21 F= -.17815549E+03 E0= -.17809728E+03  d E =-.629182E-03
 trial-energy change:   -0.000629  1 .order   -0.000637   -0.000831   -0.000443
 step:   2.1754(harm=  2.1754)  dis= 0.00591  next Energy=  -178.155751 (dE=-0.889E-03)
 bond charge predicted
       N       E                     dE             d eps       ncg     rms          rms(c)
DAV:   1    -0.178156105598E+03   -0.61277E-03   -0.86802E-02  1088   0.110E+00    0.185E-01
DAV:   2    -0.178159713068E+03   -0.36075E-02   -0.23115E-02  2168   0.130E+00    0.727E-01
DAV:   3    -0.178155975815E+03    0.37373E-02   -0.14951E-02  2168   0.114E+00    0.162E-01
DAV:   4    -0.178156028543E+03   -0.52728E-04   -0.28348E-03  2144   0.478E-01    0.184E-01
DAV:   5    -0.178156016126E+03    0.12416E-04   -0.20274E-03  2048   0.469E-01    0.194E-01
DAV:   6    -0.178155736743E+03    0.27938E-03   -0.14976E-03  2064   0.348E-01    0.460E-02
DAV:   7    -0.178155749804E+03   -0.13061E-04   -0.28552E-04  2136   0.140E-01    0.497E-02
DAV:   8    -0.178155727526E+03    0.22278E-04   -0.12615E-04  1880   0.101E-01    0.190E-02
DAV:   9    -0.178155724999E+03    0.25272E-05   -0.12949E-05   632   0.436E-02
  22 F= -.17815572E+03 E0= -.17809770E+03  d E =-.863464E-03
 curvature:  -1.63 expect dE=-0.478E-03 dE for cont linesearch -0.150E-06
 trial: gam= 0.32969 g(F)=  0.895E-04 g(S)=  0.204E-03 ort =-0.106E-04 (trialstep = 0.125E+01)
 search vector abs. value=  0.419E-03
 bond charge predicted
       N       E                     dE             d eps       ncg     rms          rms(c)
DAV:   1    -0.178157033266E+03   -0.13057E-02   -0.51621E-02  1096   0.156E+00    0.519E-01
DAV:   2    -0.178221656409E+03   -0.64623E-01   -0.27227E-01  2168   0.495E+00    0.342E+00
DAV:   3    -0.178155684432E+03    0.65972E-01   -0.21660E-01  2176   0.441E+00    0.335E-01
DAV:   4    -0.178155946188E+03   -0.26176E-03   -0.15742E-02  1892   0.101E+00    0.221E-01
DAV:   5    -0.178156022103E+03   -0.75915E-04   -0.33116E-03  1840   0.591E-01    0.195E-01
DAV:   6    -0.178155730209E+03    0.29189E-03   -0.17053E-03  1896   0.371E-01    0.806E-02
DAV:   7    -0.178155720013E+03    0.10195E-04   -0.36377E-04  2072   0.141E-01    0.556E-02
DAV:   8    -0.178155697306E+03    0.22707E-04   -0.18666E-04  1944   0.933E-02    0.206E-02
DAV:   9    -0.178155700363E+03   -0.30570E-05   -0.34777E-05  1128   0.745E-02
  23 F= -.17815570E+03 E0= -.17809784E+03  d E =0.246358E-04
 trial-energy change:    0.000025  1 .order    0.000067   -0.000362    0.000496
 step:   0.6189(harm=  0.5264)  dis= 0.00073  next Energy=  -178.155820 (dE=-0.948E-04)
 bond charge predicted
       N       E                     dE             d eps       ncg     rms          rms(c)
DAV:   1    -0.178156169494E+03   -0.47219E-03   -0.13096E-02  1120   0.782E-01    0.258E-01
DAV:   2    -0.178172390412E+03   -0.16221E-01   -0.68448E-02  2168   0.247E+00    0.172E+00
DAV:   3    -0.178155836750E+03    0.16554E-01   -0.54045E-02  2176   0.216E+00    0.172E-01
DAV:   4    -0.178155877073E+03   -0.40323E-04   -0.36763E-03  1828   0.500E-01    0.111E-01
DAV:   5    -0.178155890743E+03   -0.13671E-04   -0.85023E-04  1824   0.301E-01    0.943E-02
DAV:   6    -0.178155816557E+03    0.74186E-04   -0.42311E-04  1880   0.185E-01    0.363E-02
DAV:   7    -0.178155811497E+03    0.50595E-05   -0.55519E-05  1248   0.671E-02
  24 F= -.17815581E+03 E0= -.17809787E+03  d E =-.864986E-04
 curvature:  -0.37 expect dE=-0.715E-04 dE for cont linesearch -0.688E-05
 ZBRENT: interpolating
 opt :   0.4750  next Energy=  -178.155818 (dE=-0.928E-04)
 bond charge predicted
       N       E                     dE             d eps       ncg     rms          rms(c)
DAV:   1    -0.178155832099E+03   -0.15542E-04   -0.69870E-04  1128   0.189E-01    0.650E-02
DAV:   2    -0.178156850434E+03   -0.10183E-02   -0.44158E-03  2168   0.614E-01    0.431E-01
DAV:   3    -0.178155808868E+03    0.10416E-02   -0.34278E-03  2176   0.544E-01    0.463E-02
DAV:   4    -0.178155809548E+03   -0.68018E-06   -0.22590E-04  1812   0.124E-01    0.262E-02
DAV:   5    -0.178155809478E+03    0.69856E-07   -0.40279E-05  1064   0.752E-02
  25 F= -.17815581E+03 E0= -.17809786E+03  d E =-.844792E-04
 curvature:  -0.34 expect dE=-0.609E-04 dE for cont linesearch -0.529E-05
 ZBRENT: bisectioning
 opt :   0.2375  next Energy=  -178.155827 (dE=-0.102E-03)
 bond charge predicted
       N       E                     dE             d eps       ncg     rms          rms(c)
DAV:   1    -0.178155845789E+03   -0.36241E-04   -0.18593E-03  1104   0.297E-01    0.106E-01
DAV:   2    -0.178158656686E+03   -0.28109E-02   -0.11856E-02  2168   0.102E+00    0.716E-01
DAV:   3    -0.178155784944E+03    0.28717E-02   -0.93798E-03  2176   0.901E-01    0.726E-02
DAV:   4    -0.178155789447E+03   -0.45033E-05   -0.60232E-04  1820   0.202E-01    0.417E-02
DAV:   5    -0.178155792078E+03   -0.26310E-05   -0.12944E-04  1688   0.116E-01    0.363E-02
DAV:   6    -0.178155779414E+03    0.12664E-04   -0.46685E-05  1064   0.727E-02    0.160E-02
DAV:   7    -0.178155779215E+03    0.19936E-06   -0.16756E-05   664   0.318E-02
  26 F= -.17815578E+03 E0= -.17809779E+03  d E =-.542159E-04
 curvature:  -1.15 expect dE=-0.995E-04 dE for cont linesearch -0.283E-04
 ZBRENT: interpolating
 opt :   0.3702  next Energy=  -178.155814 (dE=-0.887E-04)
 bond charge predicted
       N       E                     dE             d eps       ncg     rms          rms(c)
DAV:   1    -0.178155807251E+03   -0.27837E-04   -0.61484E-04  1120   0.170E-01    0.533E-02
DAV:   2    -0.178156491044E+03   -0.68379E-03   -0.28313E-03  2176   0.513E-01    0.353E-01
DAV:   3    -0.178155797353E+03    0.69369E-03   -0.22772E-03  2176   0.448E-01    0.360E-02
DAV:   4    -0.178155798238E+03   -0.88523E-06   -0.16185E-04  1780   0.105E-01    0.230E-02
DAV:   5    -0.178155799102E+03   -0.86385E-06   -0.31167E-05  1024   0.675E-02
  27 F= -.17815580E+03 E0= -.17809781E+03  d E =-.741030E-04
 curvature:  -0.17 expect dE=-0.182E-04 dE for cont linesearch -0.845E-05
 ZBRENT: interpolating
 opt :   0.4375  next Energy=  -178.155811 (dE=-0.860E-04)
 bond charge predicted
       N       E                     dE             d eps       ncg     rms          rms(c)
DAV:   1    -0.178155806503E+03   -0.82652E-05   -0.15581E-04  1216   0.922E-02    0.332E-02
DAV:   2    -0.178156097941E+03   -0.29144E-03   -0.12259E-03  2176   0.326E-01    0.227E-01
DAV:   3    -0.178155803001E+03    0.29494E-03   -0.96722E-04  2176   0.292E-01    0.253E-02
DAV:   4    -0.178155801358E+03    0.16435E-05   -0.48139E-05  1232   0.636E-02
  28 F= -.17815580E+03 E0= -.17809783E+03  d E =-.763588E-04
 curvature:  -0.03 expect dE=-0.240E-05 dE for cont linesearch -0.471E-06
 ZBRENT: interpolating
 opt :   0.4563  next Energy=  -178.155810 (dE=-0.852E-04)
 bond charge predicted
       N       E                     dE             d eps       ncg     rms          rms(c)
DAV:   1    -0.178155804135E+03   -0.11336E-05   -0.31414E-05   836   0.477E-02    0.158E-02
DAV:   2    -0.178155856071E+03   -0.51936E-04   -0.23655E-04  2064   0.146E-01    0.946E-02
DAV:   3    -0.178155804626E+03    0.51445E-04   -0.18530E-04  2056   0.134E-01    0.148E-02
DAV:   4    -0.178155802789E+03    0.18373E-05   -0.12707E-05   624   0.353E-02
  29 F= -.17815580E+03 E0= -.17809784E+03  d E =-.777901E-04
 curvature:  -0.05 expect dE=-0.416E-05 dE for cont linesearch -0.126E-06
 ZBRENT: interpolating
 opt :   0.4618  next Energy=  -178.155803 (dE=-0.779E-04)
 bond charge predicted
       N       E                     dE             d eps       ncg     rms          rms(c)
DAV:   1    -0.178155803629E+03    0.99774E-06   -0.78341E-06   556   0.215E-02    0.677E-03
DAV:   2    -0.178155809016E+03   -0.53874E-05   -0.17884E-05   584   0.570E-02
  30 F= -.17815581E+03 E0= -.17809787E+03  d E =-.840171E-04
 curvature:  -0.03 expect dE=-0.144E-04 dE for cont linesearch -0.269E-05
 ZBRENT: interpolating
 opt :   0.4572  next Energy=  -178.155803 (dE=-0.778E-04)
 bond charge predicted
       N       E                     dE             d eps       ncg     rms          rms(c)
DAV:   1    -0.178155803880E+03   -0.25142E-06   -0.97094E-06   556   0.497E-02    0.542E-03
DAV:   2    -0.178155807990E+03   -0.41095E-05   -0.13148E-05   580   0.503E-02
  31 F= -.17815581E+03 E0= -.17809785E+03  d E =-.829907E-04
 curvature:  -0.00 expect dE=-0.273E-07 dE for cont linesearch -0.788E-09
 ZBRENT: interpolating
 opt :   0.4567  next Energy=  -178.155803 (dE=-0.778E-04)
 bond charge predicted
       N       E                     dE             d eps       ncg     rms          rms(c)
DAV:   1    -0.178155804059E+03   -0.17862E-06   -0.87889E-06   568   0.491E-02    0.513E-03
DAV:   2    -0.178155808600E+03   -0.45414E-05   -0.13350E-05   568   0.509E-02
  32 F= -.17815581E+03 E0= -.17809787E+03  d E =-.836012E-04
 curvature:  -0.00 expect dE=-0.482E-06 dE for cont linesearch -0.690E-07
 ZBRENT: interpolating
 opt :   0.4564  next Energy=  -178.155803 (dE=-0.778E-04)
 bond charge predicted
       N       E                     dE             d eps       ncg     rms          rms(c)
DAV:   1    -0.178155804089E+03   -0.30493E-07   -0.87095E-06   556   0.479E-02    0.614E-03
DAV:   2    -0.178155808961E+03   -0.48717E-05   -0.14568E-05   556   0.542E-02
  33 F= -.17815581E+03 E0= -.17809786E+03  d E =-.839619E-04
 curvature:  -0.00 expect dE=-0.553E-08 dE for cont linesearch -0.583E-09
 ZBRENT: interpolating
 opt :   0.4563  next Energy=  -178.155803 (dE=-0.778E-04)
 bond charge predicted
       N       E                     dE             d eps       ncg     rms          rms(c)
DAV:   1    -0.178155804140E+03   -0.51148E-07   -0.94484E-06   568   0.508E-02    0.608E-03
DAV:   2    -0.178155809846E+03   -0.57055E-05   -0.17147E-05   592   0.578E-02
  34 F= -.17815581E+03 E0= -.17809787E+03  d E =-.848469E-04
 curvature:  -0.00 expect dE=-0.356E-08 dE for cont linesearch -0.526E-09
 ZBRENT: interpolating
 opt :   0.4563  next Energy=  -178.155803 (dE=-0.778E-04)
 bond charge predicted
       N       E                     dE             d eps       ncg     rms          rms(c)
DAV:   1    -0.178155804278E+03   -0.13762E-06   -0.11202E-05   592   0.544E-02    0.776E-03
DAV:   2    -0.178155813155E+03   -0.88769E-05   -0.25547E-05   660   0.704E-02
  35 F= -.17815581E+03 E0= -.17809787E+03  d E =-.881559E-04
 curvature:  -0.00 expect dE=-0.411E-09 dE for cont linesearch -0.777E-10
 ZBRENT: interpolating
 opt :   0.4563  next Energy=  -178.155803 (dE=-0.778E-04)
 bond charge predicted
       N       E                     dE             d eps       ncg     rms          rms(c)
DAV:   1    -0.178155804287E+03   -0.87130E-08   -0.16490E-05   636   0.658E-02    0.758E-03
DAV:   2    -0.178155811897E+03   -0.76108E-05   -0.28112E-05   884   0.688E-02
  36 F= -.17815581E+03 E0= -.17809787E+03  d E =-.868985E-04
 curvature:  -0.00 expect dE=-0.320E-10 dE for cont linesearch -0.492E-11
 ZBRENT: interpolating
 opt :   0.4563  next Energy=  -178.155803 (dE=-0.778E-04)
 bond charge predicted
       N       E                     dE             d eps       ncg     rms          rms(c)
DAV:   1    -0.178155804667E+03   -0.38004E-06   -0.17526E-05   660   0.660E-02    0.114E-02
DAV:   2    -0.178155832200E+03   -0.27533E-04   -0.10974E-04  1720   0.109E-01    0.682E-02
DAV:   3    -0.178155804628E+03    0.27572E-04   -0.93748E-05  1640   0.104E-01    0.125E-02
DAV:   4    -0.178155803183E+03    0.14450E-05   -0.89297E-06   588   0.271E-02
  37 F= -.17815580E+03 E0= -.17809784E+03  d E =-.781837E-04
 curvature:  -0.00 expect dE=-0.174E-11 dE for cont linesearch -0.213E-12
 ZBRENT: bisectioning
 opt :   0.4563  next Energy=  -178.155803 (dE=-0.782E-04)
 bond charge predicted
       N       E                     dE             d eps       ncg     rms          rms(c)
DAV:   1    -0.178155803482E+03    0.11452E-05   -0.38076E-06   556   0.102E-02    0.329E-03
DAV:   2    -0.178155806369E+03   -0.28864E-05   -0.73679E-06   556   0.365E-02
  38 F= -.17815581E+03 E0= -.17809786E+03  d E =-.813699E-04
 curvature:  -0.00 expect dE=-0.426E-09 dE for cont linesearch -0.398E-10
 ZBRENT: interpolating
 opt :   0.4563  next Energy=  -178.155803 (dE=-0.782E-04)
 bond charge predicted
       N       E                     dE             d eps       ncg     rms          rms(c)
DAV:   1    -0.178155803667E+03   -0.18482E-06   -0.48534E-06   556   0.339E-02    0.186E-03
DAV:   2    -0.178155803935E+03   -0.26743E-06   -0.19401E-06   556   0.144E-02
  39 F= -.17815580E+03 E0= -.17809784E+03  d E =-.789358E-04
 curvature:  -0.00 expect dE=-0.852E-11 dE for cont linesearch -0.142E-11
 ZBRENT: bisectioning
 opt :   0.4563  next Energy=  -178.155804 (dE=-0.789E-04)
 bond charge predicted
       N       E                     dE             d eps       ncg     rms          rms(c)
DAV:   1    -0.178155803744E+03   -0.76374E-07   -0.10670E-06   556   0.146E-02    0.272E-03
DAV:   2    -0.178155805166E+03   -0.14226E-05   -0.37241E-06   556   0.258E-02
  40 F= -.17815581E+03 E0= -.17809783E+03  d E =-.801673E-04
 curvature:  -0.00 expect dE=-0.327E-10 dE for cont linesearch -0.133E-10
 ZBRENT:  can not reach accuracy
 opt :   0.0000  next Energy=     0.000000 (dE= 0.178E+03)
 bond charge predicted
       N       E                     dE             d eps       ncg     rms          rms(c)
DAV:   1    -0.178155918225E+03   -0.11448E-03   -0.69150E-03  1088   0.577E-01    0.189E-01
DAV:   2    -0.178164641092E+03   -0.87229E-02   -0.36621E-02  2168   0.182E+00    0.126E+00
DAV:   3    -0.178155742050E+03    0.88990E-02   -0.28949E-02  2176   0.158E+00    0.126E-01
DAV:   4    -0.178155763699E+03   -0.21649E-04   -0.19665E-03  1828   0.365E-01    0.815E-02
DAV:   5    -0.178155771561E+03   -0.78619E-05   -0.47507E-04  1824   0.219E-01    0.697E-02
DAV:   6    -0.178155730816E+03    0.40746E-04   -0.24158E-04  1816   0.137E-01    0.270E-02
DAV:   7    -0.178155728649E+03    0.21670E-05   -0.43075E-05  1120   0.564E-02
  41 F= -.17815573E+03 E0= -.17809770E+03  d E =-.364965E-05
 curvature:   0.00 expect dE= 0.198-322 dE for cont linesearch  0.148-322
 ZBRENT: fatal error in bracketing
     please rerun with smaller EDIFF, or copy CONTCAR
     to POSCAR and continue
