<?xml version="1.0" encoding="ISO-8859-1"?>
<modeling>
 <generator>
  <i name="program" type="string">vasp </i>
  <i name="version" type="string">5.4.4.18Apr17-6-g9f103f2a35  </i>
  <i name="subversion" type="string">(build Jul 11 2019 11:52:51) complex            parallel </i>
  <i name="platform" type="string">LinuxIFC </i>
  <i name="date" type="string">2023 11 29 </i>
  <i name="time" type="string">16:52:22 </i>
 </generator>
 <incar>
  <i type="int" name="ISTART">     0</i>
  <i type="string" name="PREC">normal</i>
  <i type="int" name="IBRION">     2</i>
  <i name="EDIFF">      0.00001000</i>
  <i name="EDIFFG">     -0.01000000</i>
  <i type="int" name="NSW">   500</i>
  <i type="int" name="ISIF">     3</i>
  <i name="POTIM">      0.50000000</i>
  <i type="int" name="ISMEAR">     0</i>
  <i name="SIGMA">      0.10000000</i>
  <i name="PSTRESS">      0.00000000</i>
  <i type="logical" name="LWAVE"> F  </i>
  <i type="logical" name="LCHARG"> F  </i>
  <v type="int" name="KPOINT_BSE">    -1     0     0     0</v>
 </incar>
 <structure name="primitive_cell" >
  <crystal>
   <varray name="basis" >
    <v>       6.60096900       0.00000000       0.00000000 </v>
    <v>      -1.73506300       9.17359300       0.00000000 </v>
    <v>      -0.00019000      -0.00004400       4.27832100 </v>
   </varray>
   <i name="volume">    259.07202971 </i>
   <varray name="rec_basis" >
    <v>       0.15149291       0.02865287       0.00000702 </v>
    <v>       0.00000000       0.10900854       0.00000112 </v>
    <v>       0.00000000       0.00000000       0.23373655 </v>
   </varray>
  </crystal>
  <varray name="positions" >
   <v>      -0.13843000      -0.37931400       0.14541900 </v>
   <v>      -0.33861000      -0.18482200       0.14533700 </v>
   <v>      -0.33739300      -0.43463700      -0.35460800 </v>
   <v>       0.06681800      -0.32474000      -0.35462400 </v>
   <v>       0.06117200       0.41372600       0.14544400 </v>
   <v>       0.25537500      -0.28000200       0.14540400 </v>
   <v>       0.46651500      -0.47844600       0.14542900 </v>
   <v>       0.05527400      -0.08661900       0.14534600 </v>
   <v>      -0.34035000       0.31023000       0.14545100 </v>
   <v>      -0.13320400      -0.13563700      -0.35462800 </v>
   <v>      -0.13652600       0.36322900      -0.35458100 </v>
   <v>       0.46608300      -0.23070100      -0.35462500 </v>
   <v>       0.26435600       0.46710900      -0.35455800 </v>
   <v>       0.27139900      -0.03765800      -0.35469500 </v>
   <v>       0.45836200       0.25733000      -0.35457000 </v>
   <v>      -0.13798500       0.10541200       0.14545200 </v>
   <v>       0.45724000       0.00734100       0.14542000 </v>
   <v>       0.25996200       0.20648800       0.14546400 </v>
   <v>      -0.33258600       0.06196800      -0.35461100 </v>
   <v>       0.06663500       0.15623300      -0.35458900 </v>
  </varray>
 </structure>
 <varray name="primitive_index" >
  <v type="int" >        1 </v>
  <v type="int" >       19 </v>
  <v type="int" >       17 </v>
  <v type="int" >       14 </v>
  <v type="int" >        8 </v>
  <v type="int" >        3 </v>
  <v type="int" >        4 </v>
  <v type="int" >       18 </v>
  <v type="int" >        5 </v>
  <v type="int" >       10 </v>
  <v type="int" >        9 </v>
  <v type="int" >       16 </v>
  <v type="int" >       11 </v>
  <v type="int" >       20 </v>
  <v type="int" >       15 </v>
  <v type="int" >        2 </v>
  <v type="int" >        7 </v>
  <v type="int" >        6 </v>
  <v type="int" >       12 </v>
  <v type="int" >       13 </v>
 </varray>
 <kpoints>
  <generation param="Gamma">
   <v type="int" name="divisions">       2        2        3 </v>
   <v name="usershift">      0.00000000       0.00000000       0.00000000 </v>
   <v name="genvec1">      0.50000000      -0.00000000       0.00000000 </v>
   <v name="genvec2">      0.00000000       0.50000000       0.00000000 </v>
   <v name="genvec3">      0.00000000       0.00000000       0.33333333 </v>
   <v name="shift">      0.00000000       0.00000000       0.00000000 </v>
  </generation>
  <varray name="kpointlist" >
   <v>       0.00000000       0.00000000       0.00000000 </v>
   <v>       0.50000000      -0.00000000      -0.00000000 </v>
   <v>       0.00000000       0.50000000      -0.00000000 </v>
   <v>       0.50000000       0.50000000      -0.00000000 </v>
   <v>       0.00000000       0.00000000       0.33333333 </v>
   <v>       0.50000000      -0.00000000       0.33333333 </v>
   <v>       0.00000000       0.50000000       0.33333333 </v>
   <v>       0.50000000       0.50000000       0.33333333 </v>
  </varray>
  <varray name="weights" >
   <v>       0.08333333 </v>
   <v>       0.08333333 </v>
   <v>       0.08333333 </v>
   <v>       0.08333333 </v>
   <v>       0.16666667 </v>
   <v>       0.16666667 </v>
   <v>       0.16666667 </v>
   <v>       0.16666667 </v>
  </varray>
 </kpoints>
 <parameters>
  <separator name="general" >
   <i type="string" name="SYSTEM">unknown system</i>
   <i type="logical" name="LCOMPAT"> F  </i>
  </separator>
  <separator name="electronic" >
   <i type="string" name="PREC">normal</i>
   <i name="ENMAX">    267.88200000</i>
   <i name="ENAUG">    511.36800000</i>
   <i name="EDIFF">      0.00001000</i>
   <i type="int" name="IALGO">    38</i>
   <i type="int" name="IWAVPR">    11</i>
   <i type="int" name="NBANDS">    68</i>
   <i name="NELECT">    109.00000000</i>
   <i type="int" name="TURBO">     0</i>
   <i type="int" name="IRESTART">     0</i>
   <i type="int" name="NREBOOT">     0</i>
   <i type="int" name="NMIN">     0</i>
   <i name="EREF">      0.00000000</i>
   <separator name="electronic smearing" >
    <i type="int" name="ISMEAR">     0</i>
    <i name="SIGMA">      0.10000000</i>
    <i name="KSPACING">      0.50000000</i>
    <i type="logical" name="KGAMMA"> T  </i>
   </separator>
   <separator name="electronic projectors" >
    <i type="logical" name="LREAL"> F  </i>
    <v name="ROPT">      0.00000000      0.00000000</v>
    <i type="int" name="LMAXPAW">  -100</i>
    <i type="int" name="LMAXMIX">     2</i>
    <i type="logical" name="NLSPLINE"> F  </i>
   </separator>
   <separator name="electronic startup" >
    <i type="int" name="ISTART">     0</i>
    <i type="int" name="ICHARG">     2</i>
    <i type="int" name="INIWAV">     1</i>
   </separator>
   <separator name="electronic spin" >
    <i type="int" name="ISPIN">     1</i>
    <i type="logical" name="LNONCOLLINEAR"> F  </i>
    <v name="MAGMOM">      1.00000000      1.00000000      1.00000000      1.00000000      1.00000000      1.00000000      1.00000000      1.00000000      1.00000000      1.00000000      1.00000000      1.00000000      1.00000000      1.00000000      1.00000000      1.00000000      1.00000000      1.00000000      1.00000000      1.00000000
</v>
    <i name="NUPDOWN">     -1.00000000</i>
    <i type="logical" name="LSORBIT"> F  </i>
    <v name="SAXIS">      0.00000000      0.00000000      1.00000000</v>
    <i type="logical" name="LSPIRAL"> F  </i>
    <v name="QSPIRAL">      0.00000000      0.00000000      0.00000000</v>
    <i type="logical" name="LZEROZ"> F  </i>
   </separator>
   <separator name="electronic exchange-correlation" >
    <i type="logical" name="LASPH"> F  </i>
    <i type="logical" name="LMETAGGA"> F  </i>
   </separator>
   <separator name="electronic convergence" >
    <i type="int" name="NELM">    60</i>
    <i type="int" name="NELMDL">    -5</i>
    <i type="int" name="NELMIN">     2</i>
    <i name="ENINI">    267.88200000</i>
    <separator name="electronic convergence detail" >
     <i type="logical" name="LDIAG"> T  </i>
     <i type="logical" name="LSUBROT"> F  </i>
     <i name="WEIMIN">      0.00100000</i>
     <i name="EBREAK">      0.00000004</i>
     <i name="DEPER">      0.30000000</i>
     <i type="int" name="NRMM">     4</i>
     <i name="TIME">      0.40000000</i>
    </separator>
   </separator>
   <separator name="electronic mixer" >
    <i name="AMIX">      0.40000000</i>
    <i name="BMIX">      1.00000000</i>
    <i name="AMIN">      0.10000000</i>
    <i name="AMIX_MAG">      1.60000000</i>
    <i name="BMIX_MAG">      1.00000000</i>
    <separator name="electronic mixer details" >
     <i type="int" name="IMIX">     4</i>
     <i type="logical" name="MIXFIRST"> F  </i>
     <i type="int" name="MAXMIX">   -45</i>
     <i name="WC">    100.00000000</i>
     <i type="int" name="INIMIX">     1</i>
     <i type="int" name="MIXPRE">     1</i>
     <i type="int" name="MREMOVE">     5</i>
    </separator>
   </separator>
   <separator name="electronic dipolcorrection" >
    <i type="logical" name="LDIPOL"> F  </i>
    <i type="logical" name="LMONO"> F  </i>
    <i type="int" name="IDIPOL">     0</i>
    <i name="EPSILON">      1.00000000</i>
    <v name="DIPOL">   -100.00000000   -100.00000000   -100.00000000</v>
    <i name="EFIELD">      0.00000000</i>
   </separator>
  </separator>
  <separator name="grids" >
   <i type="int" name="NGX">    28</i>
   <i type="int" name="NGY">    40</i>
   <i type="int" name="NGZ">    18</i>
   <i type="int" name="NGXF">    56</i>
   <i type="int" name="NGYF">    80</i>
   <i type="int" name="NGZF">    36</i>
   <i type="logical" name="ADDGRID"> F  </i>
  </separator>
  <separator name="ionic" >
   <i type="int" name="NSW">   500</i>
   <i type="int" name="IBRION">     2</i>
   <i type="int" name="MDALGO">     0</i>
   <i type="int" name="ISIF">     3</i>
   <i name="PSTRESS">      0.00000000</i>
   <i name="EDIFFG">     -0.01000000</i>
   <i type="int" name="NFREE">     1</i>
   <i name="POTIM">      0.50000000</i>
   <i name="SMASS">     -3.00000000</i>
   <i name="SCALEE">      1.00000000</i>
  </separator>
  <separator name="ionic md" >
   <i name="TEBEG">      0.00010000</i>
   <i name="TEEND">      0.00010000</i>
   <i type="int" name="NBLOCK">     1</i>
   <i type="int" name="KBLOCK">   500</i>
   <i type="int" name="NPACO">   256</i>
   <i name="APACO">     16.00000000</i>
  </separator>
  <separator name="symmetry" >
   <i type="int" name="ISYM">     2</i>
   <i name="SYMPREC">      0.00001000</i>
  </separator>
  <separator name="dos" >
   <i type="int" name="LORBIT">     0</i>
   <v name="RWIGS">     -1.00000000     -1.00000000</v>
   <i type="int" name="NEDOS">   301</i>
   <i name="EMIN">     10.00000000</i>
   <i name="EMAX">    -10.00000000</i>
   <i name="EFERMI">      0.00000000</i>
  </separator>
  <separator name="writing" >
   <i type="int" name="NWRITE">     2</i>
   <i type="logical" name="LWAVE"> F  </i>
   <i type="logical" name="LDOWNSAMPLE"> F  </i>
   <i type="logical" name="LCHARG"> F  </i>
   <i type="logical" name="LPARD"> F  </i>
   <i type="logical" name="LVTOT"> F  </i>
   <i type="logical" name="LVHAR"> F  </i>
   <i type="logical" name="LELF"> F  </i>
   <i type="logical" name="LOPTICS"> F  </i>
   <v name="STM">      0.00000000      0.00000000      0.00000000      0.00000000      0.00000000      0.00000000      0.00000000</v>
  </separator>
  <separator name="performance" >
   <i type="int" name="NPAR">     4</i>
   <i type="int" name="NSIM">     4</i>
   <i type="int" name="NBLK">    -1</i>
   <i type="logical" name="LPLANE"> T  </i>
   <i type="logical" name="LSCALAPACK"> T  </i>
   <i type="logical" name="LSCAAWARE"> F  </i>
   <i type="logical" name="LSCALU"> F  </i>
   <i type="logical" name="LASYNC"> F  </i>
   <i type="logical" name="LORBITALREAL"> F  </i>
  </separator>
  <separator name="miscellaneous" >
   <i type="int" name="IDIOT">     3</i>
   <i type="int" name="ISPECIAL">     0</i>
   <i type="logical" name="LMUSIC"> F  </i>
   <v name="POMASS">     50.94100000     55.84700000</v>
   <v name="DARWINR">      0.00000000      0.00000000</v>
   <v name="DARWINV">      1.00000000      1.00000000</v>
   <i type="logical" name="LCORR"> T  </i>
  </separator>
  <i type="logical" name="GGA_COMPAT"> T  </i>
  <i type="logical" name="LBERRY"> F  </i>
  <i type="int" name="ICORELEVEL">     0</i>
  <i type="logical" name="LDAU"> F  </i>
  <i type="int" name="I_CONSTRAINED_M">     0</i>
  <separator name="electronic exchange-correlation" >
   <i type="string" name="GGA">--</i>
   <i type="int" name="VOSKOWN">     0</i>
   <i type="logical" name="LHFCALC"> F  </i>
   <i type="string" name="PRECFOCK"></i>
   <i type="logical" name="LSYMGRAD"> F  </i>
   <i type="logical" name="LHFONE"> F  </i>
   <i type="logical" name="LRHFCALC"> F  </i>
   <i type="logical" name="LTHOMAS"> F  </i>
   <i type="logical" name="LMODELHF"> F  </i>
   <i name="ENCUT4O">     -1.00000000</i>
   <i type="int" name="EXXOEP">     0</i>
   <i type="int" name="FOURORBIT">     0</i>
   <i name="AEXX">      0.00000000</i>
   <i name="HFALPHA">      0.00000000</i>
   <i name="MCALPHA">      0.00000000</i>
   <i name="ALDAX">      1.00000000</i>
   <i name="AGGAX">      1.00000000</i>
   <i name="ALDAC">      1.00000000</i>
   <i name="AGGAC">      1.00000000</i>
   <i type="int" name="NKREDX">     1</i>
   <i type="int" name="NKREDY">     1</i>
   <i type="int" name="NKREDZ">     1</i>
   <i type="logical" name="SHIFTRED"> F  </i>
   <i type="logical" name="ODDONLY"> F  </i>
   <i type="logical" name="EVENONLY"> F  </i>
   <i type="int" name="LMAXFOCK">     0</i>
   <i type="int" name="NMAXFOCKAE">     0</i>
   <i type="logical" name="LFOCKAEDFT"> F  </i>
   <i name="HFSCREEN">      0.00000000</i>
   <i name="HFSCREENC">      0.00000000</i>
   <i type="int" name="NBANDSGWLOW">     0</i>
  </separator>
  <separator name="vdW DFT" >
   <i type="logical" name="LUSE_VDW"> F  </i>
   <i name="Zab_VDW">     -0.84910000</i>
   <i name="PARAM1">      0.12340000</i>
   <i name="PARAM2">      1.00000000</i>
   <i name="PARAM3">      0.00000000</i>
  </separator>
  <separator name="model GW" >
   <i type="int" name="MODEL_GW">     0</i>
   <i name="MODEL_EPS0">      7.77216089</i>
   <i name="MODEL_ALPHA">      1.00000000</i>
  </separator>
  <separator name="linear response parameters" >
   <i type="logical" name="LEPSILON"> F  </i>
   <i type="logical" name="LRPA"> F  </i>
   <i type="logical" name="LNABLA"> F  </i>
   <i type="logical" name="LVEL"> F  </i>
   <i type="int" name="KINTER">     0</i>
   <i name="CSHIFT">      0.10000000</i>
   <i name="OMEGAMAX">     -1.00000000</i>
   <i name="DEG_THRESHOLD">      0.00200000</i>
   <i name="RTIME">     -0.10000000</i>
   <i name="WPLASMAI">      0.00000000</i>
   <v name="DFIELD">      0.00000000      0.00000000      0.00000000</v>
   <v name="WPLASMA">      0.00000000      0.00000000      0.00000000      0.00000000      0.00000000      0.00000000      0.00000000      0.00000000      0.00000000</v>
  </separator>
  <separator name="orbital magnetization" >
   <i type="logical" name="NUCIND"> F  </i>
   <v name="MAGPOS">      0.00000000      0.00000000      0.00000000</v>
   <i type="logical" name="LNICSALL"> T  </i>
   <i type="logical" name="ORBITALMAG"> F  </i>
   <i type="logical" name="LMAGBLOCH"> F  </i>
   <i type="logical" name="LCHIMAG"> F  </i>
   <i type="logical" name="LGAUGE"> T  </i>
   <i type="int" name="MAGATOM">     0</i>
   <v name="MAGDIPOL">      0.00000000      0.00000000      0.00000000</v>
   <v name="AVECCONST">      0.00000000      0.00000000      0.00000000</v>
  </separator>
  <separator name="response functions" >
   <i type="logical" name="LADDER"> F  </i>
   <i type="logical" name="LRPAFORCE"> F  </i>
   <i type="logical" name="LFXC"> F  </i>
   <i type="logical" name="LHARTREE"> T  </i>
   <i type="int" name="IBSE">     0</i>
   <v type="int" name="KPOINT">    -1     0     0     0</v>
   <i type="logical" name="LTCTE"> F  </i>
   <i type="logical" name="LTETE"> F  </i>
   <i type="logical" name="LTRIPLET"> F  </i>
   <i type="logical" name="LFXCEPS"> F  </i>
   <i type="logical" name="LFXHEG"> F  </i>
   <i type="int" name="NATURALO">     2</i>
   <i type="logical" name="L2ORDER"> F  </i>
   <i type="logical" name="LMP2LT"> F  </i>
   <i type="logical" name="LUSEW"> F  </i>
   <i name="ENCUTGW">     -2.00000000</i>
   <i name="ENCUTGWSOFT">     -2.00000000</i>
   <i name="ENCUTLF">     -1.00000000</i>
   <i type="int" name="LMAXMP2">    -1</i>
   <i name="SCISSOR">      0.00000000</i>
   <i type="int" name="NOMEGA">     0</i>
   <i type="int" name="NOMEGAR">     0</i>
   <i type="int" name="NBANDSGW">    -1</i>
   <i type="int" name="NBANDSO">    -1</i>
   <i type="int" name="NBANDSV">    -1</i>
   <i type="int" name="NELM">     1</i>
   <i type="int" name="NELMHF">     1</i>
   <i type="int" name="DIM">     3</i>
   <i type="int" name="ANTIRES">     0</i>
   <i name="OMEGAMAX">    -30.00000000</i>
   <i name="OMEGAMIN">    -30.00000000</i>
   <i name="OMEGATL">   -200.00000000</i>
   <i type="int" name="OMEGAGRID">   140</i>
   <i name="CSHIFT">     -0.10000000</i>
   <i type="logical" name="SELFENERGY"> F  </i>
   <i type="logical" name="LSPECTRAL"> F  </i>
   <i type="logical" name="LSPECTRALGW"> F  </i>
   <i type="logical" name="LSINGLES"> F  </i>
   <i type="logical" name="LFERMIGW"> F  </i>
   <i type="logical" name="ODDONLYGW"> F  </i>
   <i type="logical" name="EVENONLYGW"> F  </i>
   <i type="int" name="NKREDLFX">     1</i>
   <i type="int" name="NKREDLFY">     1</i>
   <i type="int" name="NKREDLFZ">     1</i>
   <i type="int" name="MAXMEM">  2800</i>
   <i type="int" name="TELESCOPE">     0</i>
   <i type="int" name="TAUPAR">     1</i>
   <i type="int" name="OMEGAPAR">    -1</i>
   <i name="LAMBDA">      1.00000000</i>
  </separator>
  <separator name="External order field" >
   <i name="OFIELD_KAPPA">      0.00000000</i>
   <v name="OFIELD_K">      0.00000000      0.00000000      0.00000000</v>
   <i name="OFIELD_Q6_NEAR">      0.00000000</i>
   <i name="OFIELD_Q6_FAR">      0.00000000</i>
   <i name="OFIELD_A">      0.00000000</i>
  </separator>
 </parameters>
 <atominfo>
  <atoms>      20 </atoms>
  <types>       2 </types>
  <array name="atoms" >
   <dimension dim="1">ion</dimension>
   <field type="string">element</field>
   <field type="int">atomtype</field>
   <set>
    <rc><c>V </c><c>   1</c></rc>
    <rc><c>V </c><c>   1</c></rc>
    <rc><c>V </c><c>   1</c></rc>
    <rc><c>V </c><c>   1</c></rc>
    <rc><c>V </c><c>   1</c></rc>
    <rc><c>V </c><c>   1</c></rc>
    <rc><c>V </c><c>   1</c></rc>
    <rc><c>V </c><c>   1</c></rc>
    <rc><c>V </c><c>   1</c></rc>
    <rc><c>V </c><c>   1</c></rc>
    <rc><c>V </c><c>   1</c></rc>
    <rc><c>V </c><c>   1</c></rc>
    <rc><c>V </c><c>   1</c></rc>
    <rc><c>V </c><c>   1</c></rc>
    <rc><c>V </c><c>   1</c></rc>
    <rc><c>V </c><c>   1</c></rc>
    <rc><c>V </c><c>   1</c></rc>
    <rc><c>Fe</c><c>   2</c></rc>
    <rc><c>Fe</c><c>   2</c></rc>
    <rc><c>Fe</c><c>   2</c></rc>
   </set>
  </array>
  <array name="atomtypes" >
   <dimension dim="1">type</dimension>
   <field type="int">atomspertype</field>
   <field type="string">element</field>
   <field>mass</field>
   <field>valence</field>
   <field type="string">pseudopotential</field>
   <set>
    <rc><c>  17</c><c>V </c><c>     50.94100000</c><c>      5.00000000</c><c>  PAW_PBE V 08Apr2002                   </c></rc>
    <rc><c>   3</c><c>Fe</c><c>     55.84700000</c><c>      8.00000000</c><c>  PAW_PBE Fe 06Sep2000                  </c></rc>
   </set>
  </array>
 </atominfo>
 <structure name="initialpos" >
  <crystal>
   <varray name="basis" >
    <v>       6.60096900       0.00000000       0.00000000 </v>
    <v>      -1.73506300       9.17359300       0.00000000 </v>
    <v>      -0.00019000      -0.00004400       4.27832100 </v>
   </varray>
   <i name="volume">    259.07202971 </i>
   <varray name="rec_basis" >
    <v>       0.15149291       0.02865287       0.00000702 </v>
    <v>       0.00000000       0.10900854       0.00000112 </v>
    <v>       0.00000000       0.00000000       0.23373655 </v>
   </varray>
  </crystal>
  <varray name="positions" >
   <v>       0.86157000       0.62068600       0.14541900 </v>
   <v>       0.86201500       0.10541200       0.14545200 </v>
   <v>       0.25537500       0.71999800       0.14540400 </v>
   <v>       0.46651500       0.52155400       0.14542900 </v>
   <v>       0.65965000       0.31023000       0.14545100 </v>
   <v>       0.25996200       0.20648800       0.14546400 </v>
   <v>       0.45724000       0.00734100       0.14542000 </v>
   <v>       0.06117200       0.41372600       0.14544400 </v>
   <v>       0.86347400       0.36322900       0.64541900 </v>
   <v>       0.86679600       0.86436300       0.64537200 </v>
   <v>       0.26435600       0.46710900       0.64544200 </v>
   <v>       0.66741400       0.06196800       0.64538900 </v>
   <v>       0.06663500       0.15623300       0.64541100 </v>
   <v>       0.06681800       0.67526000       0.64537600 </v>
   <v>       0.45836200       0.25733000       0.64543000 </v>
   <v>       0.46608300       0.76929900       0.64537500 </v>
   <v>       0.66260700       0.56536300       0.64539200 </v>
   <v>       0.05527400       0.91338100       0.14534600 </v>
   <v>       0.66139000       0.81517800       0.14533700 </v>
   <v>       0.27139900       0.96234200       0.64530500 </v>
  </varray>
 </structure>
 <calculation>
  <scstep>
   <time name="dav">    1.48    1.49</time>
   <time name="total">    1.54    1.55</time>
   <energy>
    <i name="alphaZ">    552.45268290 </i>
    <i name="ewald">  -5202.29018576 </i>
    <i name="hartreedc">   -900.41037986 </i>
    <i name="XCdc">   -770.74835268 </i>
    <i name="pawpsdc">   5171.05454107 </i>
    <i name="pawaedc">  -4356.08836938 </i>
    <i name="eentropy">     -0.08093098 </i>
    <i name="bandstr">   1449.10419200 </i>
    <i name="atom">   4687.48422623 </i>
    <i name="e_fr_energy">    630.47742354 </i>
    <i name="e_wo_entrp">    630.55835452 </i>
    <i name="e_0_energy">    630.51788903 </i>
   </energy>
  </scstep>
  <scstep>
   <time name="dav">    1.46    1.46</time>
   <time name="total">    1.46    1.47</time>
   <energy>
    <i name="e_fr_energy">    -73.12805498 </i>
    <i name="e_wo_entrp">    -73.06271126 </i>
    <i name="e_0_energy">    -73.09538312 </i>
   </energy>
  </scstep>
  <scstep>
   <time name="dav">    2.15    2.15</time>
   <time name="total">    2.15    2.15</time>
   <energy>
    <i name="e_fr_energy">   -188.79850887 </i>
    <i name="e_wo_entrp">   -188.72196765 </i>
    <i name="e_0_energy">   -188.76023826 </i>
   </energy>
  </scstep>
  <scstep>
   <time name="dav">    2.09    2.09</time>
   <time name="total">    2.09    2.09</time>
   <energy>
    <i name="e_fr_energy">   -200.63179991 </i>
    <i name="e_wo_entrp">   -200.53390832 </i>
    <i name="e_0_energy">   -200.58285412 </i>
   </energy>
  </scstep>
  <scstep>
   <time name="dav">    2.06    2.06</time>
   <time name="total">    2.12    2.12</time>
   <energy>
    <i name="e_fr_energy">   -201.30367952 </i>
    <i name="e_wo_entrp">   -201.20172058 </i>
    <i name="e_0_energy">   -201.25270005 </i>
   </energy>
  </scstep>
  <scstep>
   <time name="dav">    2.36    2.36</time>
   <time name="total">    2.46    2.47</time>
   <energy>
    <i name="e_fr_energy">   -238.34996853 </i>
    <i name="e_wo_entrp">   -238.24009448 </i>
    <i name="e_0_energy">   -238.29503150 </i>
   </energy>
  </scstep>
  <scstep>
   <time name="dav">    2.38    2.38</time>
   <time name="total">    2.49    2.49</time>
   <energy>
    <i name="e_fr_energy">   -178.39093010 </i>
    <i name="e_wo_entrp">   -178.30006804 </i>
    <i name="e_0_energy">   -178.34549907 </i>
   </energy>
  </scstep>
  <scstep>
   <time name="dav">    2.38    2.39</time>
   <time name="total">    2.49    2.49</time>
   <energy>
    <i name="e_fr_energy">   -207.46947646 </i>
    <i name="e_wo_entrp">   -207.37714817 </i>
    <i name="e_0_energy">   -207.42331232 </i>
   </energy>
  </scstep>
  <scstep>
   <time name="dav">    2.38    2.40</time>
   <time name="total">    2.49    2.51</time>
   <energy>
    <i name="e_fr_energy">   -177.73672492 </i>
    <i name="e_wo_entrp">   -177.62900871 </i>
    <i name="e_0_energy">   -177.68286681 </i>
   </energy>
  </scstep>
  <scstep>
   <time name="dav">    2.48    2.50</time>
   <time name="total">    2.58    2.60</time>
   <energy>
    <i name="e_fr_energy">   -175.19939859 </i>
    <i name="e_wo_entrp">   -175.08357191 </i>
    <i name="e_0_energy">   -175.14148525 </i>
   </energy>
  </scstep>
  <scstep>
   <time name="dav">    2.12    2.14</time>
   <time name="total">    2.21    2.23</time>
   <energy>
    <i name="e_fr_energy">   -175.00198697 </i>
    <i name="e_wo_entrp">   -174.88567497 </i>
    <i name="e_0_energy">   -174.94383097 </i>
   </energy>
  </scstep>
  <scstep>
   <time name="dav">    1.82    1.83</time>
   <time name="total">    1.91    1.92</time>
   <energy>
    <i name="e_fr_energy">   -174.86239978 </i>
    <i name="e_wo_entrp">   -174.74545304 </i>
    <i name="e_0_energy">   -174.80392641 </i>
   </energy>
  </scstep>
  <scstep>
   <time name="dav">    2.15    2.17</time>
   <time name="total">    2.25    2.27</time>
   <energy>
    <i name="e_fr_energy">   -174.78290946 </i>
    <i name="e_wo_entrp">   -174.67055433 </i>
    <i name="e_0_energy">   -174.72673190 </i>
   </energy>
  </scstep>
  <scstep>
   <time name="dav">    2.12    2.14</time>
   <time name="total">    2.22    2.24</time>
   <energy>
    <i name="e_fr_energy">   -174.49813800 </i>
    <i name="e_wo_entrp">   -174.38278696 </i>
    <i name="e_0_energy">   -174.44046248 </i>
   </energy>
  </scstep>
  <scstep>
   <time name="dav">    2.03    2.05</time>
   <time name="total">    2.14    2.16</time>
   <energy>
    <i name="e_fr_energy">   -174.37649917 </i>
    <i name="e_wo_entrp">   -174.25637387 </i>
    <i name="e_0_energy">   -174.31643652 </i>
   </energy>
  </scstep>
  <scstep>
   <time name="dav">    2.36    2.38</time>
   <time name="total">    2.46    2.48</time>
   <energy>
    <i name="e_fr_energy">   -174.36529470 </i>
    <i name="e_wo_entrp">   -174.24349694 </i>
    <i name="e_0_energy">   -174.30439582 </i>
   </energy>
  </scstep>
  <scstep>
   <time name="dav">    2.39    2.41</time>
   <time name="total">    2.50    2.51</time>
   <energy>
    <i name="e_fr_energy">   -174.39537602 </i>
    <i name="e_wo_entrp">   -174.27646536 </i>
    <i name="e_0_energy">   -174.33592069 </i>
   </energy>
  </scstep>
  <scstep>
   <time name="dav">    2.42    2.44</time>
   <time name="total">    2.52    2.54</time>
   <energy>
    <i name="e_fr_energy">   -174.38673292 </i>
    <i name="e_wo_entrp">   -174.26683147 </i>
    <i name="e_0_energy">   -174.32678220 </i>
   </energy>
  </scstep>
  <scstep>
   <time name="dav">    2.34    2.36</time>
   <time name="total">    2.44    2.47</time>
   <energy>
    <i name="e_fr_energy">   -174.36134109 </i>
    <i name="e_wo_entrp">   -174.24182094 </i>
    <i name="e_0_energy">   -174.30158101 </i>
   </energy>
  </scstep>
  <scstep>
   <time name="dav">    2.16    2.18</time>
   <time name="total">    2.26    2.28</time>
   <energy>
    <i name="e_fr_energy">   -174.34599615 </i>
    <i name="e_wo_entrp">   -174.22538057 </i>
    <i name="e_0_energy">   -174.28568836 </i>
   </energy>
  </scstep>
  <scstep>
   <time name="dav">    2.10    2.11</time>
   <time name="total">    2.20    2.21</time>
   <energy>
    <i name="e_fr_energy">   -174.34529070 </i>
    <i name="e_wo_entrp">   -174.22488606 </i>
    <i name="e_0_energy">   -174.28508838 </i>
   </energy>
  </scstep>
  <scstep>
   <time name="dav">    2.02    2.04</time>
   <time name="total">    2.12    2.14</time>
   <energy>
    <i name="e_fr_energy">   -174.34432823 </i>
    <i name="e_wo_entrp">   -174.22370633 </i>
    <i name="e_0_energy">   -174.28401728 </i>
   </energy>
  </scstep>
  <scstep>
   <time name="dav">    2.19    2.21</time>
   <time name="total">    2.29    2.31</time>
   <energy>
    <i name="e_fr_energy">   -174.34387795 </i>
    <i name="e_wo_entrp">   -174.22327739 </i>
    <i name="e_0_energy">   -174.28357767 </i>
   </energy>
  </scstep>
  <scstep>
   <time name="dav">    1.94    1.95</time>
   <time name="total">    2.03    2.05</time>
   <energy>
    <i name="e_fr_energy">   -174.34364723 </i>
    <i name="e_wo_entrp">   -174.22294311 </i>
    <i name="e_0_energy">   -174.28329517 </i>
   </energy>
  </scstep>
  <scstep>
   <time name="dav">    2.12    2.15</time>
   <time name="total">    2.22    2.25</time>
   <energy>
    <i name="e_fr_energy">   -174.34338656 </i>
    <i name="e_wo_entrp">   -174.22259553 </i>
    <i name="e_0_energy">   -174.28299105 </i>
   </energy>
  </scstep>
  <scstep>
   <time name="dav">    1.83    1.84</time>
   <time name="total">    1.93    1.95</time>
   <energy>
    <i name="e_fr_energy">   -174.34336956 </i>
    <i name="e_wo_entrp">   -174.22256696 </i>
    <i name="e_0_energy">   -174.28296826 </i>
   </energy>
  </scstep>
  <scstep>
   <time name="dav">    1.15    1.17</time>
   <time name="total">    1.26    1.27</time>
   <energy>
    <i name="e_fr_energy">   -174.34335678 </i>
    <i name="e_wo_entrp">   -174.22253850 </i>
    <i name="e_0_energy">   -174.28294764 </i>
   </energy>
  </scstep>
  <scstep>
   <time name="dav">    1.02    1.03</time>
   <time name="total">    1.07    1.08</time>
   <energy>
    <i name="alphaZ">    552.45268290 </i>
    <i name="ewald">  -5202.29018576 </i>
    <i name="hartreedc">   -734.10064709 </i>
    <i name="XCdc">   -769.11949748 </i>
    <i name="pawpsdc">   7663.24311541 </i>
    <i name="pawaedc">  -6860.46674898 </i>
    <i name="eentropy">     -0.12083079 </i>
    <i name="bandstr">    488.57453030 </i>
    <i name="atom">   4687.48422623 </i>
    <i name="e_fr_energy">   -174.34335525 </i>
    <i name="e_wo_entrp">   -174.22252446 </i>
    <i name="e_0_energy">   -174.28293985 </i>
   </energy>
  </scstep>
  <structure>
   <crystal>
    <varray name="basis" >
     <v>       6.60096900       0.00000000       0.00000000 </v>
     <v>      -1.73506300       9.17359300       0.00000000 </v>
     <v>      -0.00019000      -0.00004400       4.27832100 </v>
    </varray>
    <i name="volume">    259.07202971 </i>
    <varray name="rec_basis" >
     <v>       0.15149291       0.02865287       0.00000702 </v>
     <v>       0.00000000       0.10900854       0.00000112 </v>
     <v>       0.00000000       0.00000000       0.23373655 </v>
    </varray>
   </crystal>
   <varray name="positions" >
    <v>       0.86157000       0.62068600       0.14541900 </v>
    <v>       0.86201500       0.10541200       0.14545200 </v>
    <v>       0.25537500       0.71999800       0.14540400 </v>
    <v>       0.46651500       0.52155400       0.14542900 </v>
    <v>       0.65965000       0.31023000       0.14545100 </v>
    <v>       0.25996200       0.20648800       0.14546400 </v>
    <v>       0.45724000       0.00734100       0.14542000 </v>
    <v>       0.06117200       0.41372600       0.14544400 </v>
    <v>       0.86347400       0.36322900       0.64541900 </v>
    <v>       0.86679600       0.86436300       0.64537200 </v>
    <v>       0.26435600       0.46710900       0.64544200 </v>
    <v>       0.66741400       0.06196800       0.64538900 </v>
    <v>       0.06663500       0.15623300       0.64541100 </v>
    <v>       0.06681800       0.67526000       0.64537600 </v>
    <v>       0.45836200       0.25733000       0.64543000 </v>
    <v>       0.46608300       0.76929900       0.64537500 </v>
    <v>       0.66260700       0.56536300       0.64539200 </v>
    <v>       0.05527400       0.91338100       0.14534600 </v>
    <v>       0.66139000       0.81517800       0.14533700 </v>
    <v>       0.27139900       0.96234200       0.64530500 </v>
   </varray>
  </structure>
  <varray name="forces" >
   <v>      -0.17879754       0.09406310      -0.00086135 </v>
   <v>       0.23688647      -0.17163286      -0.00173704 </v>
   <v>      -0.03856748       0.10576369      -0.00084203 </v>
   <v>      -0.20610497      -0.12827373      -0.00006413 </v>
   <v>      -0.14611115       0.13829005      -0.00043758 </v>
   <v>      -0.19486557       0.23876484      -0.00117436 </v>
   <v>      -0.31956818      -0.30216134      -0.00159269 </v>
   <v>       0.14964784      -0.08708569       0.00003680 </v>
   <v>       0.01534739      -0.06582598       0.00095997 </v>
   <v>       0.52250741       0.43343634       0.00008242 </v>
   <v>      -0.09459244      -0.02692071       0.00001156 </v>
   <v>      -0.17121128      -0.12358178       0.00196683 </v>
   <v>      -0.10794322      -0.03993060       0.00157158 </v>
   <v>      -0.05016598      -0.32772906       0.00153213 </v>
   <v>       0.28391841       0.20647700       0.00110328 </v>
   <v>       0.11439285       0.20011000       0.00081247 </v>
   <v>       0.32730095      -0.06926622       0.00134540 </v>
   <v>       0.13061571      -0.12620445      -0.00176895 </v>
   <v>      -0.13339645       0.17624173      -0.00118708 </v>
   <v>      -0.13929278      -0.12453432       0.00024279 </v>
  </varray>
  <varray name="stress" >
   <v>     154.05317236      42.54004120       0.01845564 </v>
   <v>      42.54004126    -151.29479315       0.01318488 </v>
   <v>       0.01845572       0.01318489     -43.45330496 </v>
  </varray>
  <energy>
   <i name="e_fr_energy">   -174.34335525 </i>
   <i name="e_wo_entrp">   -174.28293985 </i>
   <i name="e_0_energy">     -0.12083079 </i>
  </energy>
  <time name="totalsc">   62.51   62.93</time>
 </calculation>
 <calculation>
  <scstep>
   <time name="dav">    1.05    1.06</time>
   <time name="total">    1.15    1.16</time>
   <energy>
    <i name="alphaZ">    563.52442945 </i>
    <i name="ewald">  -5261.15729618 </i>
    <i name="hartreedc">   -719.69279864 </i>
    <i name="XCdc">   -767.43351160 </i>
    <i name="pawpsdc">   7663.18374724 </i>
    <i name="pawaedc">  -6860.40564554 </i>
    <i name="eentropy">     -0.11204623 </i>
    <i name="bandstr">    515.96044935 </i>
    <i name="atom">   4687.48422623 </i>
    <i name="e_fr_energy">   -178.64844593 </i>
    <i name="e_wo_entrp">   -178.53639971 </i>
    <i name="e_0_energy">   -178.59242282 </i>
   </energy>
  </scstep>
  <scstep>
   <time name="dav">    2.25    2.27</time>
   <time name="total">    2.35    2.37</time>
   <energy>
    <i name="e_fr_energy">   -190.74033527 </i>
    <i name="e_wo_entrp">   -190.60400551 </i>
    <i name="e_0_energy">   -190.67217039 </i>
   </energy>
  </scstep>
  <scstep>
   <time name="dav">    2.25    2.27</time>
   <time name="total">    2.35    2.37</time>
   <energy>
    <i name="e_fr_energy">   -177.22071429 </i>
    <i name="e_wo_entrp">   -177.11752736 </i>
    <i name="e_0_energy">   -177.16912082 </i>
   </energy>
  </scstep>
  <scstep>
   <time name="dav">    2.19    2.21</time>
   <time name="total">    2.28    2.30</time>
   <energy>
    <i name="e_fr_energy">   -178.83767126 </i>
    <i name="e_wo_entrp">   -178.72234653 </i>
    <i name="e_0_energy">   -178.78000889 </i>
   </energy>
  </scstep>
  <scstep>
   <time name="dav">    1.94    1.95</time>
   <time name="total">    2.03    2.05</time>
   <energy>
    <i name="e_fr_energy">   -177.68569467 </i>
    <i name="e_wo_entrp">   -177.57913514 </i>
    <i name="e_0_energy">   -177.63241490 </i>
   </energy>
  </scstep>
  <scstep>
   <time name="dav">    2.10    2.12</time>
   <time name="total">    2.21    2.22</time>
   <energy>
    <i name="e_fr_energy">   -177.19280995 </i>
    <i name="e_wo_entrp">   -177.09979729 </i>
    <i name="e_0_energy">   -177.14630362 </i>
   </energy>
  </scstep>
  <scstep>
   <time name="dav">    2.32    2.34</time>
   <time name="total">    2.42    2.44</time>
   <energy>
    <i name="e_fr_energy">   -177.14082425 </i>
    <i name="e_wo_entrp">   -177.03378609 </i>
    <i name="e_0_energy">   -177.08730517 </i>
   </energy>
  </scstep>
  <scstep>
   <time name="dav">    2.31    2.34</time>
   <time name="total">    2.42    2.44</time>
   <energy>
    <i name="e_fr_energy">   -177.09710625 </i>
    <i name="e_wo_entrp">   -176.99129759 </i>
    <i name="e_0_energy">   -177.04420192 </i>
   </energy>
  </scstep>
  <scstep>
   <time name="dav">    2.06    2.07</time>
   <time name="total">    2.16    2.17</time>
   <energy>
    <i name="e_fr_energy">   -177.09162607 </i>
    <i name="e_wo_entrp">   -176.98614318 </i>
    <i name="e_0_energy">   -177.03888463 </i>
   </energy>
  </scstep>
  <scstep>
   <time name="dav">    2.13    2.14</time>
   <time name="total">    2.23    2.24</time>
   <energy>
    <i name="e_fr_energy">   -177.08713794 </i>
    <i name="e_wo_entrp">   -176.98160266 </i>
    <i name="e_0_energy">   -177.03437030 </i>
   </energy>
  </scstep>
  <scstep>
   <time name="dav">    1.93    1.94</time>
   <time name="total">    2.03    2.04</time>
   <energy>
    <i name="e_fr_energy">   -177.09015413 </i>
    <i name="e_wo_entrp">   -176.98431990 </i>
    <i name="e_0_energy">   -177.03723702 </i>
   </energy>
  </scstep>
  <scstep>
   <time name="dav">    1.93    1.95</time>
   <time name="total">    2.03    2.05</time>
   <energy>
    <i name="e_fr_energy">   -177.08499270 </i>
    <i name="e_wo_entrp">   -176.97916770 </i>
    <i name="e_0_energy">   -177.03208020 </i>
   </energy>
  </scstep>
  <scstep>
   <time name="dav">    2.02    2.03</time>
   <time name="total">    2.11    2.14</time>
   <energy>
    <i name="e_fr_energy">   -177.08488145 </i>
    <i name="e_wo_entrp">   -176.97885986 </i>
    <i name="e_0_energy">   -177.03187065 </i>
   </energy>
  </scstep>
  <scstep>
   <time name="dav">    1.95    1.97</time>
   <time name="total">    2.06    2.07</time>
   <energy>
    <i name="e_fr_energy">   -177.08447102 </i>
    <i name="e_wo_entrp">   -176.97871092 </i>
    <i name="e_0_energy">   -177.03159097 </i>
   </energy>
  </scstep>
  <scstep>
   <time name="dav">    2.31    2.33</time>
   <time name="total">    2.41    2.43</time>
   <energy>
    <i name="e_fr_energy">   -177.08428292 </i>
    <i name="e_wo_entrp">   -176.97857964 </i>
    <i name="e_0_energy">   -177.03143128 </i>
   </energy>
  </scstep>
  <scstep>
   <time name="dav">    2.28    2.30</time>
   <time name="total">    2.38    2.40</time>
   <energy>
    <i name="e_fr_energy">   -177.08417392 </i>
    <i name="e_wo_entrp">   -176.97850311 </i>
    <i name="e_0_energy">   -177.03133852 </i>
   </energy>
  </scstep>
  <scstep>
   <time name="dav">    2.15    2.16</time>
   <time name="total">    2.25    2.26</time>
   <energy>
    <i name="e_fr_energy">   -177.08413738 </i>
    <i name="e_wo_entrp">   -176.97847425 </i>
    <i name="e_0_energy">   -177.03130582 </i>
   </energy>
  </scstep>
  <scstep>
   <time name="dav">    1.58    1.59</time>
   <time name="total">    1.68    1.69</time>
   <energy>
    <i name="e_fr_energy">   -177.08412675 </i>
    <i name="e_wo_entrp">   -176.97847578 </i>
    <i name="e_0_energy">   -177.03130127 </i>
   </energy>
  </scstep>
  <scstep>
   <time name="dav">    1.02    1.02</time>
   <time name="total">    1.07    1.07</time>
   <energy>
    <i name="alphaZ">    563.52442945 </i>
    <i name="ewald">  -5261.15729618 </i>
    <i name="hartreedc">   -702.77226193 </i>
    <i name="XCdc">   -768.29196540 </i>
    <i name="pawpsdc">   7764.08394816 </i>
    <i name="pawaedc">  -6961.84051743 </i>
    <i name="eentropy">     -0.10563628 </i>
    <i name="bandstr">    501.99094888 </i>
    <i name="atom">   4687.48422623 </i>
    <i name="e_fr_energy">   -177.08412451 </i>
    <i name="e_wo_entrp">   -176.97848823 </i>
    <i name="e_0_energy">   -177.03130637 </i>
   </energy>
  </scstep>
  <structure>
   <crystal>
    <varray name="basis" >
     <v>       6.99760258       0.10952588       0.00004752 </v>
     <v>      -1.68710617       8.60345857       0.00003469 </v>
     <v>      -0.00017135      -0.00002255       4.20580943 </v>
    </varray>
    <i name="volume">    253.98195783 </i>
    <varray name="rec_basis" >
     <v>       0.14246881       0.02793760       0.00000595 </v>
     <v>      -0.00181369       0.11587667       0.00000055 </v>
     <v>      -0.00000159      -0.00000127       0.23776636 </v>
    </varray>
   </crystal>
   <varray name="positions" >
    <v>       0.86039329       0.62118066       0.14540929 </v>
    <v>       0.86350902       0.10450941       0.14543241 </v>
    <v>       0.25523933       0.72055420       0.14539451 </v>
    <v>       0.46483139       0.52087943       0.14542828 </v>
    <v>       0.65877332       0.31095725       0.14544607 </v>
    <v>       0.25886788       0.20774363       0.14545076 </v>
    <v>       0.45448679       0.00575198       0.14540204 </v>
    <v>       0.06214531       0.41326803       0.14544441 </v>
    <v>       0.86349517       0.36288283       0.64542982 </v>
    <v>       0.87121384       0.86664238       0.64537293 </v>
    <v>       0.26362747       0.46696743       0.64544213 </v>
    <v>       0.66599189       0.06131810       0.64541118 </v>
    <v>       0.06579091       0.15602301       0.64542872 </v>
    <v>       0.06599835       0.67353652       0.64539328 </v>
    <v>       0.46072241       0.25841583       0.64544244 </v>
    <v>       0.46719564       0.77035135       0.64538416 </v>
    <v>       0.66490331       0.56499874       0.64540717 </v>
    <v>       0.05605414       0.91271731       0.14532605 </v>
    <v>       0.66065870       0.81610483       0.14532361 </v>
    <v>       0.27020885       0.96168709       0.64530774 </v>
   </varray>
  </structure>
  <varray name="forces" >
   <v>      -0.05710799       0.05223371      -0.00099520 </v>
   <v>      -0.10834604      -0.11784847      -0.00145075 </v>
   <v>       0.11068165      -0.00571255      -0.00117008 </v>
   <v>       0.02887922       0.08843781      -0.00111486 </v>
   <v>      -0.06132683       0.10852296      -0.00127943 </v>
   <v>      -0.11423118       0.03595737      -0.00131370 </v>
   <v>      -0.01233491       0.17159216      -0.00100377 </v>
   <v>      -0.03093208      -0.05444531      -0.00087151 </v>
   <v>       0.07781928      -0.05866806      -0.00036239 </v>
   <v>      -0.18689422      -0.04884872      -0.00068917 </v>
   <v>       0.01960699       0.02785741      -0.00078900 </v>
   <v>       0.01589445      -0.03765790      -0.00082045 </v>
   <v>      -0.12179674       0.12796399      -0.00060606 </v>
   <v>       0.19804645      -0.01620277      -0.00036337 </v>
   <v>       0.00382864      -0.09638110      -0.00069748 </v>
   <v>       0.03975494      -0.06868174      -0.00046400 </v>
   <v>       0.06219146      -0.04638109      -0.00041830 </v>
   <v>       0.03045907      -0.09507194       0.00465417 </v>
   <v>       0.04362598       0.04227541       0.00457274 </v>
   <v>       0.06218184      -0.00894117       0.00518262 </v>
  </varray>
  <varray name="stress" >
   <v>     104.20012503      -0.31183304       0.03056363 </v>
   <v>      -0.31183297     -71.68397317       0.00458833 </v>
   <v>       0.03056360       0.00458826     -37.92174011 </v>
  </varray>
  <energy>
   <i name="e_fr_energy">   -177.08412451 </i>
   <i name="e_wo_entrp">   -177.03130637 </i>
   <i name="e_0_energy">     -0.10563628 </i>
  </energy>
  <time name="totalsc">   42.14   42.48</time>
 </calculation>
 <calculation>
  <scstep>
   <time name="dav">    1.39    1.40</time>
   <time name="total">    1.50    1.50</time>
   <energy>
    <i name="alphaZ">    571.47487167 </i>
    <i name="ewald">  -5295.57122972 </i>
    <i name="hartreedc">   -697.61482594 </i>
    <i name="XCdc">   -767.32161396 </i>
    <i name="pawpsdc">   7764.07479536 </i>
    <i name="pawaedc">  -6961.83109555 </i>
    <i name="eentropy">     -0.11709753 </i>
    <i name="bandstr">    521.25163726 </i>
    <i name="atom">   4687.48422623 </i>
    <i name="e_fr_energy">   -178.17033218 </i>
    <i name="e_wo_entrp">   -178.05323465 </i>
    <i name="e_0_energy">   -178.11178342 </i>
   </energy>
  </scstep>
  <scstep>
   <time name="dav">    2.15    2.15</time>
   <time name="total">    2.25    2.25</time>
   <energy>
    <i name="e_fr_energy">   -184.90213028 </i>
    <i name="e_wo_entrp">   -184.78352836 </i>
    <i name="e_0_energy">   -184.84282932 </i>
   </energy>
  </scstep>
  <scstep>
   <time name="dav">    2.42    2.42</time>
   <time name="total">    2.52    2.52</time>
   <energy>
    <i name="e_fr_energy">   -177.67305813 </i>
    <i name="e_wo_entrp">   -177.55921746 </i>
    <i name="e_0_energy">   -177.61613780 </i>
   </energy>
  </scstep>
  <scstep>
   <time name="dav">    2.28    2.29</time>
   <time name="total">    2.38    2.39</time>
   <energy>
    <i name="e_fr_energy">   -178.07223474 </i>
    <i name="e_wo_entrp">   -177.94919889 </i>
    <i name="e_0_energy">   -178.01071681 </i>
   </energy>
  </scstep>
  <scstep>
   <time name="dav">    2.34    2.34</time>
   <time name="total">    2.44    2.45</time>
   <energy>
    <i name="e_fr_energy">   -177.78381357 </i>
    <i name="e_wo_entrp">   -177.66822824 </i>
    <i name="e_0_energy">   -177.72602091 </i>
   </energy>
  </scstep>
  <scstep>
   <time name="dav">    2.42    2.43</time>
   <time name="total">    2.53    2.53</time>
   <energy>
    <i name="e_fr_energy">   -177.77064551 </i>
    <i name="e_wo_entrp">   -177.65093645 </i>
    <i name="e_0_energy">   -177.71079098 </i>
   </energy>
  </scstep>
  <scstep>
   <time name="dav">    2.29    2.29</time>
   <time name="total">    2.39    2.39</time>
   <energy>
    <i name="e_fr_energy">   -177.71383282 </i>
    <i name="e_wo_entrp">   -177.59688975 </i>
    <i name="e_0_energy">   -177.65536129 </i>
   </energy>
  </scstep>
  <scstep>
   <time name="dav">    2.34    2.35</time>
   <time name="total">    2.45    2.45</time>
   <energy>
    <i name="e_fr_energy">   -177.70895832 </i>
    <i name="e_wo_entrp">   -177.59029591 </i>
    <i name="e_0_energy">   -177.64962711 </i>
   </energy>
  </scstep>
  <scstep>
   <time name="dav">    2.05    2.06</time>
   <time name="total">    2.16    2.16</time>
   <energy>
    <i name="e_fr_energy">   -177.70836156 </i>
    <i name="e_wo_entrp">   -177.59035772 </i>
    <i name="e_0_energy">   -177.64935964 </i>
   </energy>
  </scstep>
  <scstep>
   <time name="dav">    2.07    2.07</time>
   <time name="total">    2.17    2.17</time>
   <energy>
    <i name="e_fr_energy">   -177.70719673 </i>
    <i name="e_wo_entrp">   -177.58940193 </i>
    <i name="e_0_energy">   -177.64829933 </i>
   </energy>
  </scstep>
  <scstep>
   <time name="dav">    2.15    2.15</time>
   <time name="total">    2.25    2.25</time>
   <energy>
    <i name="e_fr_energy">   -177.70814536 </i>
    <i name="e_wo_entrp">   -177.59028322 </i>
    <i name="e_0_energy">   -177.64921429 </i>
   </energy>
  </scstep>
  <scstep>
   <time name="dav">    1.80    1.80</time>
   <time name="total">    1.90    1.90</time>
   <energy>
    <i name="e_fr_energy">   -177.70691730 </i>
    <i name="e_wo_entrp">   -177.58918910 </i>
    <i name="e_0_energy">   -177.64805320 </i>
   </energy>
  </scstep>
  <scstep>
   <time name="dav">    1.55    1.55</time>
   <time name="total">    1.66    1.66</time>
   <energy>
    <i name="e_fr_energy">   -177.70695874 </i>
    <i name="e_wo_entrp">   -177.58930413 </i>
    <i name="e_0_energy">   -177.64813143 </i>
   </energy>
  </scstep>
  <scstep>
   <time name="dav">    1.86    1.87</time>
   <time name="total">    1.96    1.97</time>
   <energy>
    <i name="e_fr_energy">   -177.70687404 </i>
    <i name="e_wo_entrp">   -177.58921139 </i>
    <i name="e_0_energy">   -177.64804271 </i>
   </energy>
  </scstep>
  <scstep>
   <time name="dav">    1.99    1.99</time>
   <time name="total">    2.09    2.09</time>
   <energy>
    <i name="e_fr_energy">   -177.70684779 </i>
    <i name="e_wo_entrp">   -177.58921969 </i>
    <i name="e_0_energy">   -177.64803374 </i>
   </energy>
  </scstep>
  <scstep>
   <time name="dav">    1.27    1.27</time>
   <time name="total">    1.37    1.37</time>
   <energy>
    <i name="e_fr_energy">   -177.70683563 </i>
    <i name="e_wo_entrp">   -177.58921073 </i>
    <i name="e_0_energy">   -177.64802318 </i>
   </energy>
  </scstep>
  <scstep>
   <time name="dav">    1.23    1.23</time>
   <time name="total">    1.28    1.28</time>
   <energy>
    <i name="alphaZ">    571.47487167 </i>
    <i name="ewald">  -5295.57122972 </i>
    <i name="hartreedc">   -688.54330758 </i>
    <i name="XCdc">   -767.67078793 </i>
    <i name="pawpsdc">   7879.48544343 </i>
    <i name="pawaedc">  -7077.77896361 </i>
    <i name="eentropy">     -0.11759443 </i>
    <i name="bandstr">    513.53050690 </i>
    <i name="atom">   4687.48422623 </i>
    <i name="e_fr_energy">   -177.70683504 </i>
    <i name="e_wo_entrp">   -177.58924061 </i>
    <i name="e_0_energy">   -177.64803783 </i>
   </energy>
  </scstep>
  <structure>
   <crystal>
    <varray name="basis" >
     <v>       7.21139493       0.16856222       0.00007313 </v>
     <v>      -1.66125660       8.29614627       0.00005338 </v>
     <v>      -0.00016130      -0.00001099       4.16672444 </v>
    </varray>
    <i name="volume">    250.44852359 </i>
    <varray name="rec_basis" >
     <v>       0.13802339       0.02763841       0.00000542 </v>
     <v>      -0.00280438       0.11997633       0.00000021 </v>
     <v>      -0.00000239      -0.00000202       0.23999667 </v>
    </varray>
   </crystal>
   <varray name="positions" >
    <v>       0.85979924       0.62147253       0.14540397 </v>
    <v>       0.86426193       0.10398107       0.14542167 </v>
    <v>       0.25517328       0.72087470       0.14538930 </v>
    <v>       0.46397464       0.52050263       0.14542789 </v>
    <v>       0.65833248       0.31138084       0.14544336 </v>
    <v>       0.25831942       0.20847227       0.14544350 </v>
    <v>       0.45308337       0.00485657       0.14539222 </v>
    <v>       0.06263645       0.41299856       0.14544464 </v>
    <v>       0.86350421       0.36268376       0.64543576 </v>
    <v>       0.87346446       0.86792377       0.64537340 </v>
    <v>       0.26325747       0.46689077       0.64544221 </v>
    <v>       0.66526782       0.06095380       0.64542335 </v>
    <v>       0.06536200       0.15590778       0.64543844 </v>
    <v>       0.06557441       0.67255137       0.64540276 </v>
    <v>       0.46192424       0.25902460       0.64544924 </v>
    <v>       0.46776481       0.77094893       0.64538917 </v>
    <v>       0.66606554       0.56477459       0.64541548 </v>
    <v>       0.05644635       0.91233087       0.14531511 </v>
    <v>       0.66029254       0.81664218       0.14531627 </v>
    <v>       0.26960234       0.96131841       0.64530925 </v>
   </varray>
  </structure>
  <varray name="forces" >
   <v>       0.01418280       0.02342456      -0.00076789 </v>
   <v>      -0.28145955      -0.03102735      -0.00108477 </v>
   <v>       0.14242962      -0.09803328      -0.00104868 </v>
   <v>       0.14291770       0.15874253      -0.00116846 </v>
   <v>      -0.05912222       0.05713966      -0.00112078 </v>
   <v>      -0.08006766      -0.15941527      -0.00133063 </v>
   <v>       0.11172698       0.35368995      -0.00088014 </v>
   <v>      -0.06469372       0.00453784      -0.00110002 </v>
   <v>      -0.00902597       0.04616596      -0.00060689 </v>
   <v>      -0.43098573      -0.25434934      -0.00096076 </v>
   <v>       0.08056410      -0.08915364      -0.00087278 </v>
   <v>       0.09647876      -0.04444340      -0.00178615 </v>
   <v>      -0.07079157       0.15255772      -0.00169841 </v>
   <v>       0.24678846       0.22420701      -0.00108025 </v>
   <v>      -0.09537430      -0.19752976      -0.00153408 </v>
   <v>       0.02132947      -0.22641144      -0.00086181 </v>
   <v>       0.00060853       0.09450265      -0.00088284 </v>
   <v>       0.00988560      -0.12597448       0.00574140 </v>
   <v>       0.08436558      -0.01125681       0.00712973 </v>
   <v>       0.14024312       0.12262691       0.00591421 </v>
  </varray>
  <varray name="stress" >
   <v>      68.05035916     -26.24841054       0.01869864 </v>
   <v>     -26.24841059     -16.80779418      -0.00006957 </v>
   <v>       0.01869852      -0.00006970       2.81954632 </v>
  </varray>
  <energy>
   <i name="e_fr_energy">   -177.70683504 </i>
   <i name="e_wo_entrp">   -177.64803783 </i>
   <i name="e_0_energy">     -0.11759443 </i>
  </energy>
  <time name="totalsc">   37.93   37.99</time>
 </calculation>
 <calculation>
  <scstep>
   <time name="dav">    1.39    1.40</time>
   <time name="total">    1.49    1.50</time>
   <energy>
    <i name="alphaZ">    591.91860336 </i>
    <i name="ewald">  -5373.21533571 </i>
    <i name="hartreedc">   -680.99401269 </i>
    <i name="XCdc">   -765.20191919 </i>
    <i name="pawpsdc">   7879.47249557 </i>
    <i name="pawaedc">  -7077.76340820 </i>
    <i name="eentropy">     -0.11450565 </i>
    <i name="bandstr">    559.81274680 </i>
    <i name="atom">   4687.48422623 </i>
    <i name="e_fr_energy">   -178.60110950 </i>
    <i name="e_wo_entrp">   -178.48660384 </i>
    <i name="e_0_energy">   -178.54385667 </i>
   </energy>
  </scstep>
  <scstep>
   <time name="dav">    2.10    2.10</time>
   <time name="total">    2.20    2.20</time>
   <energy>
    <i name="e_fr_energy">   -202.24751567 </i>
    <i name="e_wo_entrp">   -202.11357605 </i>
    <i name="e_0_energy">   -202.18054586 </i>
   </energy>
  </scstep>
  <scstep>
   <time name="dav">    2.18    2.19</time>
   <time name="total">    2.28    2.29</time>
   <energy>
    <i name="e_fr_energy">   -177.42544983 </i>
    <i name="e_wo_entrp">   -177.30413741 </i>
    <i name="e_0_energy">   -177.36479362 </i>
   </energy>
  </scstep>
  <scstep>
   <time name="dav">    2.34    2.34</time>
   <time name="total">    2.44    2.44</time>
   <energy>
    <i name="e_fr_energy">   -177.75604656 </i>
    <i name="e_wo_entrp">   -177.62850842 </i>
    <i name="e_0_energy">   -177.69227749 </i>
   </energy>
  </scstep>
  <scstep>
   <time name="dav">    2.27    2.27</time>
   <time name="total">    2.37    2.37</time>
   <energy>
    <i name="e_fr_energy">   -177.53782246 </i>
    <i name="e_wo_entrp">   -177.41778580 </i>
    <i name="e_0_energy">   -177.47780413 </i>
   </energy>
  </scstep>
  <scstep>
   <time name="dav">    2.21    2.21</time>
   <time name="total">    2.32    2.33</time>
   <energy>
    <i name="e_fr_energy">   -177.38914314 </i>
    <i name="e_wo_entrp">   -177.28948508 </i>
    <i name="e_0_energy">   -177.33931411 </i>
   </energy>
  </scstep>
  <scstep>
   <time name="dav">    2.23    2.24</time>
   <time name="total">    2.33    2.34</time>
   <energy>
    <i name="e_fr_energy">   -176.99187341 </i>
    <i name="e_wo_entrp">   -176.86638381 </i>
    <i name="e_0_energy">   -176.92912861 </i>
   </energy>
  </scstep>
  <scstep>
   <time name="dav">    2.10    2.10</time>
   <time name="total">    2.20    2.21</time>
   <energy>
    <i name="e_fr_energy">   -176.96311148 </i>
    <i name="e_wo_entrp">   -176.83994730 </i>
    <i name="e_0_energy">   -176.90152939 </i>
   </energy>
  </scstep>
  <scstep>
   <time name="dav">    2.05    2.05</time>
   <time name="total">    2.15    2.15</time>
   <energy>
    <i name="e_fr_energy">   -176.95126180 </i>
    <i name="e_wo_entrp">   -176.82886220 </i>
    <i name="e_0_energy">   -176.89006200 </i>
   </energy>
  </scstep>
  <scstep>
   <time name="dav">    2.15    2.15</time>
   <time name="total">    2.25    2.25</time>
   <energy>
    <i name="e_fr_energy">   -176.93949676 </i>
    <i name="e_wo_entrp">   -176.81756634 </i>
    <i name="e_0_energy">   -176.87853155 </i>
   </energy>
  </scstep>
  <scstep>
   <time name="dav">    2.33    2.34</time>
   <time name="total">    2.44    2.44</time>
   <energy>
    <i name="e_fr_energy">   -176.93449312 </i>
    <i name="e_wo_entrp">   -176.81330584 </i>
    <i name="e_0_energy">   -176.87389948 </i>
   </energy>
  </scstep>
  <scstep>
   <time name="dav">    2.32    2.33</time>
   <time name="total">    2.42    2.43</time>
   <energy>
    <i name="e_fr_energy">   -176.92864702 </i>
    <i name="e_wo_entrp">   -176.80830777 </i>
    <i name="e_0_energy">   -176.86847739 </i>
   </energy>
  </scstep>
  <scstep>
   <time name="dav">    2.19    2.19</time>
   <time name="total">    2.29    2.30</time>
   <energy>
    <i name="e_fr_energy">   -176.92818494 </i>
    <i name="e_wo_entrp">   -176.80786054 </i>
    <i name="e_0_energy">   -176.86802274 </i>
   </energy>
  </scstep>
  <scstep>
   <time name="dav">    2.32    2.32</time>
   <time name="total">    2.42    2.42</time>
   <energy>
    <i name="e_fr_energy">   -176.92721398 </i>
    <i name="e_wo_entrp">   -176.80711146 </i>
    <i name="e_0_energy">   -176.86716272 </i>
   </energy>
  </scstep>
  <scstep>
   <time name="dav">    2.35    2.35</time>
   <time name="total">    2.45    2.45</time>
   <energy>
    <i name="e_fr_energy">   -176.92686979 </i>
    <i name="e_wo_entrp">   -176.80714570 </i>
    <i name="e_0_energy">   -176.86700775 </i>
   </energy>
  </scstep>
  <scstep>
   <time name="dav">    2.37    2.37</time>
   <time name="total">    2.47    2.48</time>
   <energy>
    <i name="e_fr_energy">   -176.92655625 </i>
    <i name="e_wo_entrp">   -176.80685240 </i>
    <i name="e_0_energy">   -176.86670433 </i>
   </energy>
  </scstep>
  <scstep>
   <time name="dav">    1.87    1.87</time>
   <time name="total">    1.97    1.97</time>
   <energy>
    <i name="e_fr_energy">   -176.92653237 </i>
    <i name="e_wo_entrp">   -176.80682129 </i>
    <i name="e_0_energy">   -176.86667683 </i>
   </energy>
  </scstep>
  <scstep>
   <time name="dav">    1.97    1.98</time>
   <time name="total">    2.08    2.08</time>
   <energy>
    <i name="e_fr_energy">   -176.92649327 </i>
    <i name="e_wo_entrp">   -176.80689799 </i>
    <i name="e_0_energy">   -176.86669563 </i>
   </energy>
  </scstep>
  <scstep>
   <time name="dav">    1.23    1.23</time>
   <time name="total">    1.27    1.28</time>
   <energy>
    <i name="alphaZ">    591.91860336 </i>
    <i name="ewald">  -5373.21533571 </i>
    <i name="hartreedc">   -661.49230182 </i>
    <i name="XCdc">   -766.06716108 </i>
    <i name="pawpsdc">   8235.35292820 </i>
    <i name="pawaedc">  -7435.75325084 </i>
    <i name="eentropy">     -0.11959250 </i>
    <i name="bandstr">    544.96539224 </i>
    <i name="atom">   4687.48422623 </i>
    <i name="e_fr_energy">   -176.92649193 </i>
    <i name="e_wo_entrp">   -176.80689943 </i>
    <i name="e_0_energy">   -176.86669568 </i>
   </energy>
  </scstep>
  <structure>
   <crystal>
    <varray name="basis" >
     <v>       7.63897963       0.28663490       0.00012435 </v>
     <v>      -1.60955748       7.68152167       0.00009078 </v>
     <v>      -0.00014119       0.00001212       4.08855445 </v>
    </varray>
    <i name="volume">    241.79851261 </i>
    <varray name="rec_basis" >
     <v>       0.12988632       0.02721590       0.00000440 </v>
     <v>      -0.00484669       0.12916698      -0.00000055 </v>
     <v>      -0.00000384      -0.00000370       0.24458522 </v>
    </varray>
   </crystal>
   <varray name="positions" >
    <v>       0.85865100       0.62208553       0.14539323 </v>
    <v>       0.86571564       0.10287559       0.14539998 </v>
    <v>       0.25504846       0.72154026       0.14537878 </v>
    <v>       0.46231079       0.51973231       0.14542713 </v>
    <v>       0.65748244       0.31226503       0.14543790 </v>
    <v>       0.25726383       0.20999050       0.14542884 </v>
    <v>       0.45035511       0.00301780       0.14537241 </v>
    <v>       0.06358547       0.41243335       0.14544509 </v>
    <v>       0.86351976       0.36227079       0.64544775 </v>
    <v>       0.87783815       0.87055205       0.64537432 </v>
    <v>       0.26253977       0.46673659       0.64544237 </v>
    <v>       0.66386120       0.06020766       0.64544793 </v>
    <v>       0.06452977       0.15567437       0.64545808 </v>
    <v>       0.06474323       0.67051377       0.64542193 </v>
    <v>       0.46425906       0.26027154       0.64546296 </v>
    <v>       0.46887358       0.77218086       0.64539928 </v>
    <v>       0.66831542       0.56429466       0.64543224 </v>
    <v>       0.05720253       0.91152435       0.14529303 </v>
    <v>       0.65958832       0.81776132       0.14530146 </v>
    <v>       0.26842346       0.96056168       0.64531231 </v>
   </varray>
  </structure>
  <varray name="forces" >
   <v>       0.18237417      -0.13586516       0.00059115 </v>
   <v>      -0.62204886       0.45154921       0.00056453 </v>
   <v>       0.07857581      -0.49570981      -0.00027265 </v>
   <v>       0.37621875       0.26479583      -0.00043135 </v>
   <v>       0.05708885      -0.11618584      -0.00050579 </v>
   <v>       0.12213234      -0.41007074      -0.00065595 </v>
   <v>       0.17653291       0.85861209       0.00072806 </v>
   <v>      -0.20185231       0.04641529      -0.00154878 </v>
   <v>      -0.09726698       0.04023666      -0.00122253 </v>
   <v>      -0.58840172      -0.70133143      -0.00084887 </v>
   <v>       0.26570798      -0.14195326      -0.00070787 </v>
   <v>       0.03134216       0.31077202      -0.00344566 </v>
   <v>       0.15947915       0.35689692      -0.00366288 </v>
   <v>       0.11442171       0.16246501      -0.00251192 </v>
   <v>      -0.46156119      -0.14388368      -0.00211290 </v>
   <v>       0.31291026      -0.60803627      -0.00152670 </v>
   <v>      -0.21866844       0.16157422      -0.00187848 </v>
   <v>       0.21701972       0.16900543       0.00721293 </v>
   <v>       0.00107253      -0.35231818       0.00628558 </v>
   <v>       0.09492316       0.28303167       0.00595008 </v>
  </varray>
  <varray name="stress" >
   <v>      18.39308266     -75.27961003       0.00339633 </v>
   <v>     -75.27960988     140.76270422      -0.03183841 </v>
   <v>       0.00339627      -0.03183847     123.61539622 </v>
  </varray>
  <energy>
   <i name="e_fr_energy">   -176.92649193 </i>
   <i name="e_wo_entrp">   -176.86669568 </i>
   <i name="e_0_energy">     -0.11959250 </i>
  </energy>
  <time name="totalsc">   44.58   44.67</time>
 </calculation>
 <calculation>
  <scstep>
   <time name="dav">    1.41    1.41</time>
   <time name="total">    1.51    1.51</time>
   <energy>
    <i name="alphaZ">    575.89087370 </i>
    <i name="ewald">  -5313.29534647 </i>
    <i name="hartreedc">   -664.61312843 </i>
    <i name="XCdc">   -767.49408682 </i>
    <i name="pawpsdc">   8235.29604988 </i>
    <i name="pawaedc">  -7435.69571717 </i>
    <i name="eentropy">     -0.11314030 </i>
    <i name="bandstr">    503.39578337 </i>
    <i name="atom">   4687.48422623 </i>
    <i name="e_fr_energy">   -179.14448601 </i>
    <i name="e_wo_entrp">   -179.03134571 </i>
    <i name="e_0_energy">   -179.08791586 </i>
   </energy>
  </scstep>
  <scstep>
   <time name="dav">    2.28    2.28</time>
   <time name="total">    2.38    2.38</time>
   <energy>
    <i name="e_fr_energy">   -209.48098856 </i>
    <i name="e_wo_entrp">   -209.37455906 </i>
    <i name="e_0_energy">   -209.42777381 </i>
   </energy>
  </scstep>
  <scstep>
   <time name="dav">    2.28    2.28</time>
   <time name="total">    2.38    2.38</time>
   <energy>
    <i name="e_fr_energy">   -177.20053145 </i>
    <i name="e_wo_entrp">   -177.07783945 </i>
    <i name="e_0_energy">   -177.13918545 </i>
   </energy>
  </scstep>
  <scstep>
   <time name="dav">    2.14    2.15</time>
   <time name="total">    2.24    2.25</time>
   <energy>
    <i name="e_fr_energy">   -178.37472918 </i>
    <i name="e_wo_entrp">   -178.24276363 </i>
    <i name="e_0_energy">   -178.30874641 </i>
   </energy>
  </scstep>
  <scstep>
   <time name="dav">    2.35    2.36</time>
   <time name="total">    2.46    2.46</time>
   <energy>
    <i name="e_fr_energy">   -177.94670886 </i>
    <i name="e_wo_entrp">   -177.81859264 </i>
    <i name="e_0_energy">   -177.88265075 </i>
   </energy>
  </scstep>
  <scstep>
   <time name="dav">    2.35    2.35</time>
   <time name="total">    2.45    2.46</time>
   <energy>
    <i name="e_fr_energy">   -177.95015510 </i>
    <i name="e_wo_entrp">   -177.82085521 </i>
    <i name="e_0_energy">   -177.88550516 </i>
   </energy>
  </scstep>
  <scstep>
   <time name="dav">    2.22    2.22</time>
   <time name="total">    2.32    2.33</time>
   <energy>
    <i name="e_fr_energy">   -177.79645040 </i>
    <i name="e_wo_entrp">   -177.66837738 </i>
    <i name="e_0_energy">   -177.73241389 </i>
   </energy>
  </scstep>
  <scstep>
   <time name="dav">    2.27    2.27</time>
   <time name="total">    2.37    2.37</time>
   <energy>
    <i name="e_fr_energy">   -177.80134863 </i>
    <i name="e_wo_entrp">   -177.67073254 </i>
    <i name="e_0_energy">   -177.73604059 </i>
   </energy>
  </scstep>
  <scstep>
   <time name="dav">    2.30    2.30</time>
   <time name="total">    2.40    2.40</time>
   <energy>
    <i name="e_fr_energy">   -177.78873519 </i>
    <i name="e_wo_entrp">   -177.65891651 </i>
    <i name="e_0_energy">   -177.72382585 </i>
   </energy>
  </scstep>
  <scstep>
   <time name="dav">    2.13    2.13</time>
   <time name="total">    2.23    2.23</time>
   <energy>
    <i name="e_fr_energy">   -177.77662578 </i>
    <i name="e_wo_entrp">   -177.64740554 </i>
    <i name="e_0_energy">   -177.71201566 </i>
   </energy>
  </scstep>
  <scstep>
   <time name="dav">    1.94    1.94</time>
   <time name="total">    2.03    2.04</time>
   <energy>
    <i name="e_fr_energy">   -177.77726562 </i>
    <i name="e_wo_entrp">   -177.64765676 </i>
    <i name="e_0_energy">   -177.71246119 </i>
   </energy>
  </scstep>
  <scstep>
   <time name="dav">    1.99    1.99</time>
   <time name="total">    2.09    2.09</time>
   <energy>
    <i name="e_fr_energy">   -177.77635256 </i>
    <i name="e_wo_entrp">   -177.64699484 </i>
    <i name="e_0_energy">   -177.71167370 </i>
   </energy>
  </scstep>
  <scstep>
   <time name="dav">    1.99    2.00</time>
   <time name="total">    2.09    2.10</time>
   <energy>
    <i name="e_fr_energy">   -177.77655495 </i>
    <i name="e_wo_entrp">   -177.64726891 </i>
    <i name="e_0_energy">   -177.71191193 </i>
   </energy>
  </scstep>
  <scstep>
   <time name="dav">    2.22    2.23</time>
   <time name="total">    2.33    2.33</time>
   <energy>
    <i name="e_fr_energy">   -177.77632880 </i>
    <i name="e_wo_entrp">   -177.64686069 </i>
    <i name="e_0_energy">   -177.71159475 </i>
   </energy>
  </scstep>
  <scstep>
   <time name="dav">    1.96    1.96</time>
   <time name="total">    2.05    2.06</time>
   <energy>
    <i name="e_fr_energy">   -177.77634589 </i>
    <i name="e_wo_entrp">   -177.64697330 </i>
    <i name="e_0_energy">   -177.71165960 </i>
   </energy>
  </scstep>
  <scstep>
   <time name="dav">    1.78    1.79</time>
   <time name="total">    1.89    1.89</time>
   <energy>
    <i name="e_fr_energy">   -177.77633561 </i>
    <i name="e_wo_entrp">   -177.64692023 </i>
    <i name="e_0_energy">   -177.71162792 </i>
   </energy>
  </scstep>
  <scstep>
   <time name="dav">    1.16    1.16</time>
   <time name="total">    1.21    1.21</time>
   <energy>
    <i name="alphaZ">    575.89087370 </i>
    <i name="ewald">  -5313.29534647 </i>
    <i name="hartreedc">   -681.93794503 </i>
    <i name="XCdc">   -767.32935023 </i>
    <i name="pawpsdc">   7951.17341302 </i>
    <i name="pawaedc">  -7149.82057355 </i>
    <i name="eentropy">     -0.12945580 </i>
    <i name="bandstr">    520.18782299 </i>
    <i name="atom">   4687.48422623 </i>
    <i name="e_fr_energy">   -177.77633515 </i>
    <i name="e_wo_entrp">   -177.64687935 </i>
    <i name="e_0_energy">   -177.71160725 </i>
   </energy>
  </scstep>
  <structure>
   <crystal>
    <varray name="basis" >
     <v>       7.31581357       0.19739624       0.00008564 </v>
     <v>      -1.64863138       8.14605141       0.00006252 </v>
     <v>      -0.00015639      -0.00000535       4.14763488 </v>
    </varray>
    <i name="volume">    248.52805352 </i>
    <varray name="rec_basis" >
     <v>       0.13594782       0.02751368       0.00000516 </v>
     <v>      -0.00329431       0.12209215       0.00000003 </v>
     <v>      -0.00000276      -0.00000241       0.24110126 </v>
    </varray>
   </crystal>
   <varray name="positions" >
    <v>       0.85946321       0.62157389       0.14540150 </v>
    <v>       0.86468985       0.10379212       0.14541669 </v>
    <v>       0.25513222       0.72099593       0.14538689 </v>
    <v>       0.46350027       0.52034431       0.14542770 </v>
    <v>       0.65808046       0.31153507       0.14544211 </v>
    <v>       0.25800328       0.20874113       0.14544013 </v>
    <v>       0.45230988       0.00449104       0.14538763 </v>
    <v>       0.06291462       0.41290401       0.14544475 </v>
    <v>       0.86351182       0.36260792       0.64543851 </v>
    <v>       0.87470686       0.86845098       0.64537367 </v>
    <v>       0.26305150       0.46685525       0.64544224 </v>
    <v>       0.66486750       0.06080249       0.64542898 </v>
    <v>       0.06512358       0.15585654       0.64544295 </v>
    <v>       0.06534995       0.67216814       0.64540714 </v>
    <v>       0.46258866       0.25927731       0.64545242 </v>
    <v>       0.46807549       0.77118667       0.64539151 </v>
    <v>       0.66671851       0.56470868       0.64541934 </v>
    <v>       0.05667069       0.91218999       0.14531004 </v>
    <v>       0.66008083       0.81684110       0.14531287 </v>
    <v>       0.26926783       0.96116742       0.64530994 </v>
   </varray>
  </structure>
  <varray name="forces" >
   <v>       0.09474793      -0.01207092      -0.00061620 </v>
   <v>      -0.38429873       0.10010005      -0.00087210 </v>
   <v>       0.13382736      -0.17216554      -0.00093593 </v>
   <v>       0.23000631       0.15497172      -0.00110099 </v>
   <v>      -0.02335559      -0.01165719      -0.00097211 </v>
   <v>      -0.03534475      -0.21440501      -0.00132691 </v>
   <v>       0.14091859       0.45409652      -0.00066264 </v>
   <v>      -0.11441610       0.00331960      -0.00120761 </v>
   <v>      -0.02422576       0.08762780      -0.00064628 </v>
   <v>      -0.49976815      -0.36909091      -0.00099188 </v>
   <v>       0.12650893      -0.12472856      -0.00084675 </v>
   <v>       0.08031967       0.02190501      -0.00217974 </v>
   <v>      -0.03554813       0.18109071      -0.00219569 </v>
   <v>       0.25105143       0.22043332      -0.00141727 </v>
   <v>      -0.19924821      -0.16645993      -0.00178193 </v>
   <v>       0.07730348      -0.30126067      -0.00099695 </v>
   <v>      -0.07703896       0.13017571      -0.00105043 </v>
   <v>       0.01599583      -0.07482332       0.00582329 </v>
   <v>       0.07959046      -0.06178047       0.00808943 </v>
   <v>       0.16297440       0.15472209       0.00588869 </v>
  </varray>
  <varray name="stress" >
   <v>      52.60559409     -38.51546167       0.01286531 </v>
   <v>     -38.51546169      14.74321916      -0.00807245 </v>
   <v>       0.01286528      -0.00807235      24.79286031 </v>
  </varray>
  <energy>
   <i name="e_fr_energy">   -177.77633515 </i>
   <i name="e_wo_entrp">   -177.71160725 </i>
   <i name="e_0_energy">     -0.12945580 </i>
  </energy>
  <time name="totalsc">   39.14   39.20</time>
 </calculation>
 <calculation>
  <scstep>
   <time name="dav">    1.41    1.41</time>
   <time name="total">    1.51    1.51</time>
   <energy>
    <i name="alphaZ">    554.96831294 </i>
    <i name="ewald">  -5259.51195299 </i>
    <i name="hartreedc">   -665.79718247 </i>
    <i name="XCdc">   -769.40279054 </i>
    <i name="pawpsdc">   7950.85919673 </i>
    <i name="pawaedc">  -7149.50680606 </i>
    <i name="eentropy">     -0.14975488 </i>
    <i name="bandstr">    472.20884179 </i>
    <i name="atom">   4687.48422623 </i>
    <i name="e_fr_energy">   -178.84790925 </i>
    <i name="e_wo_entrp">   -178.69815437 </i>
    <i name="e_0_energy">   -178.77303181 </i>
   </energy>
  </scstep>
  <scstep>
   <time name="dav">    2.23    2.24</time>
   <time name="total">    2.33    2.34</time>
   <energy>
    <i name="e_fr_energy">   -209.59104103 </i>
    <i name="e_wo_entrp">   -209.47896229 </i>
    <i name="e_0_energy">   -209.53500166 </i>
   </energy>
  </scstep>
  <scstep>
   <time name="dav">    2.23    2.23</time>
   <time name="total">    2.33    2.33</time>
   <energy>
    <i name="e_fr_energy">   -177.36933627 </i>
    <i name="e_wo_entrp">   -177.23124593 </i>
    <i name="e_0_energy">   -177.30029110 </i>
   </energy>
  </scstep>
  <scstep>
   <time name="dav">    2.31    2.31</time>
   <time name="total">    2.41    2.41</time>
   <energy>
    <i name="e_fr_energy">   -178.41179011 </i>
    <i name="e_wo_entrp">   -178.27305945 </i>
    <i name="e_0_energy">   -178.34242478 </i>
   </energy>
  </scstep>
  <scstep>
   <time name="dav">    2.36    2.36</time>
   <time name="total">    2.46    2.46</time>
   <energy>
    <i name="e_fr_energy">   -178.02214327 </i>
    <i name="e_wo_entrp">   -177.88179526 </i>
    <i name="e_0_energy">   -177.95196926 </i>
   </energy>
  </scstep>
  <scstep>
   <time name="dav">    2.35    2.35</time>
   <time name="total">    2.45    2.45</time>
   <energy>
    <i name="e_fr_energy">   -178.03769114 </i>
    <i name="e_wo_entrp">   -177.89723378 </i>
    <i name="e_0_energy">   -177.96746246 </i>
   </energy>
  </scstep>
  <scstep>
   <time name="dav">    2.37    2.38</time>
   <time name="total">    2.47    2.48</time>
   <energy>
    <i name="e_fr_energy">   -177.93503601 </i>
    <i name="e_wo_entrp">   -177.79570941 </i>
    <i name="e_0_energy">   -177.86537271 </i>
   </energy>
  </scstep>
  <scstep>
   <time name="dav">    2.23    2.24</time>
   <time name="total">    2.34    2.34</time>
   <energy>
    <i name="e_fr_energy">   -177.93112938 </i>
    <i name="e_wo_entrp">   -177.78984581 </i>
    <i name="e_0_energy">   -177.86048759 </i>
   </energy>
  </scstep>
  <scstep>
   <time name="dav">    2.32    2.32</time>
   <time name="total">    2.42    2.43</time>
   <energy>
    <i name="e_fr_energy">   -177.93140328 </i>
    <i name="e_wo_entrp">   -177.79121419 </i>
    <i name="e_0_energy">   -177.86130874 </i>
   </energy>
  </scstep>
  <scstep>
   <time name="dav">    2.34    2.34</time>
   <time name="total">    2.44    2.44</time>
   <energy>
    <i name="e_fr_energy">   -177.92112230 </i>
    <i name="e_wo_entrp">   -177.78119648 </i>
    <i name="e_0_energy">   -177.85115939 </i>
   </energy>
  </scstep>
  <scstep>
   <time name="dav">    2.09    2.09</time>
   <time name="total">    2.19    2.19</time>
   <energy>
    <i name="e_fr_energy">   -177.92167839 </i>
    <i name="e_wo_entrp">   -177.78098338 </i>
    <i name="e_0_energy">   -177.85133089 </i>
   </energy>
  </scstep>
  <scstep>
   <time name="dav">    2.01    2.02</time>
   <time name="total">    2.12    2.12</time>
   <energy>
    <i name="e_fr_energy">   -177.92034818 </i>
    <i name="e_wo_entrp">   -177.77999416 </i>
    <i name="e_0_energy">   -177.85017117 </i>
   </energy>
  </scstep>
  <scstep>
   <time name="dav">    2.05    2.06</time>
   <time name="total">    2.16    2.16</time>
   <energy>
    <i name="e_fr_energy">   -177.92042920 </i>
    <i name="e_wo_entrp">   -177.78015948 </i>
    <i name="e_0_energy">   -177.85029434 </i>
   </energy>
  </scstep>
  <scstep>
   <time name="dav">    2.19    2.19</time>
   <time name="total">    2.29    2.29</time>
   <energy>
    <i name="e_fr_energy">   -177.92035455 </i>
    <i name="e_wo_entrp">   -177.77985509 </i>
    <i name="e_0_energy">   -177.85010482 </i>
   </energy>
  </scstep>
  <scstep>
   <time name="dav">    2.01    2.01</time>
   <time name="total">    2.11    2.12</time>
   <energy>
    <i name="e_fr_energy">   -177.92036348 </i>
    <i name="e_wo_entrp">   -177.78004884 </i>
    <i name="e_0_energy">   -177.85020616 </i>
   </energy>
  </scstep>
  <scstep>
   <time name="dav">    1.84    1.85</time>
   <time name="total">    1.95    1.95</time>
   <energy>
    <i name="e_fr_energy">   -177.92036085 </i>
    <i name="e_wo_entrp">   -177.77988859 </i>
    <i name="e_0_energy">   -177.85012472 </i>
   </energy>
  </scstep>
  <scstep>
   <time name="dav">    1.01    1.01</time>
   <time name="total">    1.06    1.06</time>
   <energy>
    <i name="alphaZ">    554.96831294 </i>
    <i name="ewald">  -5259.51195299 </i>
    <i name="hartreedc">   -684.07388392 </i>
    <i name="XCdc">   -769.02519228 </i>
    <i name="pawpsdc">   7584.89327986 </i>
    <i name="pawaedc">  -6781.04093425 </i>
    <i name="eentropy">     -0.14043816 </i>
    <i name="bandstr">    488.52622414 </i>
    <i name="atom">   4687.48422623 </i>
    <i name="e_fr_energy">   -177.92035843 </i>
    <i name="e_wo_entrp">   -177.77992028 </i>
    <i name="e_0_energy">   -177.85013936 </i>
   </energy>
  </scstep>
  <structure>
   <crystal>
    <varray name="basis" >
     <v>       7.54322126       0.09207379       0.00013424 </v>
     <v>      -1.81733526       8.15280179       0.00002959 </v>
     <v>      -0.00013377      -0.00001457       4.18218889 </v>
    </varray>
    <i name="volume">    257.89767549 </i>
    <varray name="rec_basis" >
     <v>       0.13220963       0.02947076       0.00000433 </v>
     <v>      -0.00149311       0.12232439       0.00000038 </v>
     <v>      -0.00000423      -0.00000181       0.23910924 </v>
    </varray>
   </crystal>
   <varray name="positions" >
    <v>       0.86001524       0.62155756       0.14539173 </v>
    <v>       0.86210961       0.10439660       0.14540206 </v>
    <v>       0.25586940       0.71988482       0.14537285 </v>
    <v>       0.46527092       0.52125734       0.14541268 </v>
    <v>       0.65777349       0.31158002       0.14542826 </v>
    <v>       0.25726599       0.20748859       0.14542030 </v>
    <v>       0.45372323       0.00732055       0.14537595 </v>
    <v>       0.06217329       0.41287072       0.14542852 </v>
    <v>       0.86346433       0.36315530       0.64543139 </v>
    <v>       0.87090948       0.86637509       0.64536053 </v>
    <v>       0.26372799       0.46595877       0.64543083 </v>
    <v>       0.66532772       0.06083676       0.64540283 </v>
    <v>       0.06502268       0.15706956       0.64541592 </v>
    <v>       0.06749046       0.67335244       0.64539051 </v>
    <v>       0.46112260       0.25834447       0.64543026 </v>
    <v>       0.46834569       0.76927992       0.64537944 </v>
    <v>       0.66662778       0.56554660       0.64540740 </v>
    <v>       0.05677616       0.91156587       0.14538569 </v>
    <v>       0.66049936       0.81655628       0.14542008 </v>
    <v>       0.27059158       0.96209274       0.64538978 </v>
   </varray>
  </structure>
  <varray name="forces" >
   <v>       0.17333210       0.09638394      -0.00023942 </v>
   <v>      -0.10995163      -0.00364319      -0.00055314 </v>
   <v>      -0.02721547      -0.02831198       0.00001862 </v>
   <v>       0.14511398       0.09161227      -0.00006009 </v>
   <v>       0.05005742      -0.01603555      -0.00056626 </v>
   <v>       0.00879742      -0.13927777      -0.00091367 </v>
   <v>       0.14587812       0.06455101       0.00019306 </v>
   <v>      -0.09593632      -0.02617119      -0.00110449 </v>
   <v>      -0.04787448       0.07254601      -0.00099585 </v>
   <v>      -0.20028342      -0.12483893       0.00085853 </v>
   <v>       0.14854012      -0.03243203      -0.00105319 </v>
   <v>      -0.00121000       0.08123824      -0.00043967 </v>
   <v>       0.03257668      -0.03090786      -0.00096223 </v>
   <v>       0.07611141       0.12200549      -0.00016266 </v>
   <v>      -0.24054966      -0.12586422      -0.00099653 </v>
   <v>      -0.02025224      -0.03271707      -0.00005082 </v>
   <v>      -0.09475868      -0.00075809      -0.00037392 </v>
[...]
  <structure>
   <crystal>
    <varray name="basis" >
     <v>       7.54863148      -0.14098664       0.00003882 </v>
     <v>      -2.07190850       7.92647793      -0.00002997 </v>
     <v>      -0.00018627      -0.00005359       4.21795063 </v>
    </varray>
    <i name="volume">    251.14500345 </i>
    <varray name="rec_basis" >
     <v>       0.13312426       0.03479746       0.00000632 </v>
     <v>       0.00236785       0.12677837       0.00000172 </v>
     <v>      -0.00000121       0.00000058       0.23708196 </v>
    </varray>
   </crystal>
   <varray name="positions" >
    <v>       0.86144904       0.62003044       0.14539251 </v>
    <v>       0.86202461       0.10537105       0.14539778 </v>
    <v>       0.25515998       0.71986281       0.14541178 </v>
    <v>       0.46689749       0.52176240       0.14538551 </v>
    <v>       0.65947750       0.30988260       0.14537484 </v>
    <v>       0.25972983       0.20692515       0.14538619 </v>
    <v>       0.45717741       0.00774091       0.14540411 </v>
    <v>       0.06128037       0.41367073       0.14536138 </v>
    <v>       0.86335016       0.36285156       0.64536735 </v>
    <v>       0.86675793       0.86407352       0.64542158 </v>
    <v>       0.26439750       0.46748670       0.64536970 </v>
    <v>       0.66752030       0.06224796       0.64540676 </v>
    <v>       0.06670316       0.15626494       0.64539853 </v>
    <v>       0.06696589       0.67504827       0.64540815 </v>
    <v>       0.45821830       0.25784179       0.64537088 </v>
    <v>       0.46614710       0.76935518       0.64541339 </v>
    <v>       0.66259706       0.56507403       0.64539478 </v>
    <v>       0.05545589       0.91338359       0.14547139 </v>
    <v>       0.66137015       0.81493036       0.14547705 </v>
    <v>       0.27142733       0.96268600       0.64546333 </v>
   </varray>
  </structure>
  <varray name="forces" >
   <v>       0.00776639      -0.00242852       0.00006252 </v>
   <v>       0.00203440       0.00292859       0.00003177 </v>
   <v>       0.00117747       0.00539300      -0.00018626 </v>
   <v>       0.00562821      -0.00542296       0.00019781 </v>
   <v>      -0.00438558      -0.00639674       0.00017268 </v>
   <v>      -0.00207382       0.00572971       0.00000347 </v>
   <v>       0.00589437       0.00377617      -0.00009327 </v>
   <v>       0.00897618       0.00242153       0.00017483 </v>
   <v>      -0.00007662      -0.00362375       0.00022755 </v>
   <v>      -0.00480568      -0.00505626      -0.00014907 </v>
   <v>      -0.00833957       0.00938251       0.00025866 </v>
   <v>       0.00338024      -0.00534783      -0.00004077 </v>
   <v>      -0.00861891      -0.00193539      -0.00005543 </v>
   <v>      -0.00343911       0.00032319      -0.00009268 </v>
   <v>      -0.00006432      -0.00969897       0.00012828 </v>
   <v>      -0.00968710       0.00288192      -0.00001090 </v>
   <v>       0.00693833       0.00182753       0.00016639 </v>
   <v>       0.00978780       0.00635170      -0.00025627 </v>
   <v>      -0.00224611      -0.00430913      -0.00018482 </v>
   <v>      -0.00784658       0.00320371      -0.00035450 </v>
  </varray>
  <varray name="stress" >
   <v>       0.95907040      -0.13731510       0.00022703 </v>
   <v>      -0.13731506       1.23334073       0.00035549 </v>
   <v>       0.00022707       0.00035556       0.62148057 </v>
  </varray>
  <energy>
   <i name="e_fr_energy">   -178.15580637 </i>
   <i name="e_wo_entrp">   -178.09785903 </i>
   <i name="e_0_energy">     -0.11589468 </i>
  </energy>
  <time name="totalsc">    4.57    4.57</time>
 </calculation>
 <calculation>
  <scstep>
   <time name="dav">    0.85    0.85</time>
   <time name="total">    0.95    0.96</time>
   <energy>
    <i name="alphaZ">    569.89004717 </i>
    <i name="ewald">  -5316.22210797 </i>
    <i name="hartreedc">   -664.79131032 </i>
    <i name="XCdc">   -767.81251145 </i>
    <i name="pawpsdc">   7807.17150907 </i>
    <i name="pawaedc">  -7005.01828116 </i>
    <i name="eentropy">     -0.11592714 </i>
    <i name="bandstr">    511.25855191 </i>
    <i name="atom">   4687.48422623 </i>
    <i name="e_fr_energy">   -178.15580367 </i>
    <i name="e_wo_entrp">   -178.03987653 </i>
    <i name="e_0_energy">   -178.09784010 </i>
   </energy>
  </scstep>
  <scstep>
   <time name="dav">    0.85    0.85</time>
   <time name="total">    0.90    0.90</time>
   <energy>
    <i name="alphaZ">    569.89004717 </i>
    <i name="ewald">  -5316.22210797 </i>
    <i name="hartreedc">   -664.79486226 </i>
    <i name="XCdc">   -767.81239880 </i>
    <i name="pawpsdc">   7807.17352447 </i>
    <i name="pawaedc">  -7005.02097182 </i>
    <i name="eentropy">     -0.11593769 </i>
    <i name="bandstr">    511.26267674 </i>
    <i name="atom">   4687.48422623 </i>
    <i name="e_fr_energy">   -178.15580393 </i>
    <i name="e_wo_entrp">   -178.03986625 </i>
    <i name="e_0_energy">   -178.09783509 </i>
   </energy>
  </scstep>
  <structure>
   <crystal>
    <varray name="basis" >
     <v>       7.54863148      -0.14098664       0.00003882 </v>
     <v>      -2.07190850       7.92647793      -0.00002997 </v>
     <v>      -0.00018627      -0.00005359       4.21795063 </v>
    </varray>
    <i name="volume">    251.14500348 </i>
    <varray name="rec_basis" >
     <v>       0.13312426       0.03479746       0.00000632 </v>
     <v>       0.00236785       0.12677837       0.00000172 </v>
     <v>      -0.00000121       0.00000058       0.23708196 </v>
    </varray>
   </crystal>
   <varray name="positions" >
    <v>       0.86144904       0.62003044       0.14539251 </v>
    <v>       0.86202461       0.10537105       0.14539778 </v>
    <v>       0.25515998       0.71986281       0.14541178 </v>
    <v>       0.46689749       0.52176240       0.14538551 </v>
    <v>       0.65947750       0.30988260       0.14537484 </v>
    <v>       0.25972983       0.20692515       0.14538619 </v>
    <v>       0.45717741       0.00774091       0.14540411 </v>
    <v>       0.06128037       0.41367073       0.14536138 </v>
    <v>       0.86335016       0.36285156       0.64536735 </v>
    <v>       0.86675793       0.86407352       0.64542158 </v>
    <v>       0.26439750       0.46748670       0.64536970 </v>
    <v>       0.66752030       0.06224796       0.64540676 </v>
    <v>       0.06670316       0.15626494       0.64539853 </v>
    <v>       0.06696589       0.67504827       0.64540815 </v>
    <v>       0.45821830       0.25784179       0.64537088 </v>
    <v>       0.46614710       0.76935518       0.64541339 </v>
    <v>       0.66259706       0.56507403       0.64539478 </v>
    <v>       0.05545589       0.91338359       0.14547139 </v>
    <v>       0.66137015       0.81493036       0.14547705 </v>
    <v>       0.27142733       0.96268600       0.64546333 </v>
   </varray>
  </structure>
  <varray name="forces" >
   <v>       0.00726633      -0.00412236       0.00006240 </v>
   <v>       0.00103322       0.00425185       0.00003212 </v>
   <v>       0.00256565       0.00325726      -0.00018616 </v>
   <v>       0.00563273      -0.00632948       0.00019742 </v>
   <v>      -0.00445467      -0.00561997       0.00017338 </v>
   <v>      -0.00153846       0.00825054       0.00000336 </v>
   <v>       0.00805941       0.00490871      -0.00009263 </v>
   <v>       0.00892869       0.00230248       0.00017536 </v>
   <v>      -0.00030522      -0.00360655       0.00022727 </v>
   <v>      -0.00681250      -0.00573771      -0.00014854 </v>
   <v>      -0.00807649       0.00917167       0.00025884 </v>
   <v>       0.00313400      -0.00483318      -0.00004092 </v>
   <v>      -0.00958531       0.00014728      -0.00005467 </v>
   <v>      -0.00385062      -0.00234072      -0.00009218 </v>
   <v>       0.00041618      -0.00821453       0.00012845 </v>
   <v>      -0.00885107       0.00208430      -0.00001051 </v>
   <v>       0.00688597       0.00118201       0.00016649 </v>
   <v>       0.01062676       0.00654315      -0.00025885 </v>
   <v>      -0.00238072      -0.00448343      -0.00018443 </v>
   <v>      -0.00869387       0.00318866      -0.00035621 </v>
  </varray>
  <varray name="stress" >
   <v>       0.02877728      -0.13580953       0.00020702 </v>
   <v>      -0.13580960       0.28121809       0.00036154 </v>
   <v>       0.00020694       0.00036171      -0.36349302 </v>
  </varray>
  <energy>
   <i name="e_fr_energy">   -178.15580393 </i>
   <i name="e_wo_entrp">   -178.09783509 </i>
   <i name="e_0_energy">     -0.11593769 </i>
  </energy>
  <time name="totalsc">    4.50    4.51</time>
 </calculation>
 <calculation>
  <scstep>
   <time name="dav">    0.87    0.87</time>
   <time name="total">    0.97    0.97</time>
   <energy>
    <i name="alphaZ">    569.89004720 </i>
    <i name="ewald">  -5316.22210808 </i>
    <i name="hartreedc">   -664.79080791 </i>
    <i name="XCdc">   -767.81256855 </i>
    <i name="pawpsdc">   7807.16711452 </i>
    <i name="pawaedc">  -7005.01402033 </i>
    <i name="eentropy">     -0.11592505 </i>
    <i name="bandstr">    511.25823824 </i>
    <i name="atom">   4687.48422623 </i>
    <i name="e_fr_energy">   -178.15580374 </i>
    <i name="e_wo_entrp">   -178.03987869 </i>
    <i name="e_0_energy">   -178.09784122 </i>
   </energy>
  </scstep>
  <scstep>
   <time name="dav">    0.84    0.84</time>
   <time name="total">    0.89    0.89</time>
   <energy>
    <i name="alphaZ">    569.89004720 </i>
    <i name="ewald">  -5316.22210808 </i>
    <i name="hartreedc">   -664.79813842 </i>
    <i name="XCdc">   -767.81218033 </i>
    <i name="pawpsdc">   7807.19165396 </i>
    <i name="pawaedc">  -7005.03924597 </i>
    <i name="eentropy">     -0.11594985 </i>
    <i name="bandstr">    511.26589009 </i>
    <i name="atom">   4687.48422623 </i>
    <i name="e_fr_energy">   -178.15580517 </i>
    <i name="e_wo_entrp">   -178.03985532 </i>
    <i name="e_0_energy">   -178.09783024 </i>
   </energy>
  </scstep>
  <structure>
   <crystal>
    <varray name="basis" >
     <v>       7.54863148      -0.14098664       0.00003882 </v>
     <v>      -2.07190850       7.92647793      -0.00002997 </v>
     <v>      -0.00018627      -0.00005359       4.21795063 </v>
    </varray>
    <i name="volume">    251.14500346 </i>
    <varray name="rec_basis" >
     <v>       0.13312426       0.03479746       0.00000632 </v>
     <v>       0.00236785       0.12677837       0.00000172 </v>
     <v>      -0.00000121       0.00000058       0.23708196 </v>
    </varray>
   </crystal>
   <varray name="positions" >
    <v>       0.86144904       0.62003044       0.14539251 </v>
    <v>       0.86202461       0.10537105       0.14539778 </v>
    <v>       0.25515998       0.71986281       0.14541178 </v>
    <v>       0.46689749       0.52176240       0.14538551 </v>
    <v>       0.65947750       0.30988260       0.14537484 </v>
    <v>       0.25972983       0.20692515       0.14538619 </v>
    <v>       0.45717741       0.00774091       0.14540411 </v>
    <v>       0.06128037       0.41367073       0.14536138 </v>
    <v>       0.86335016       0.36285156       0.64536735 </v>
    <v>       0.86675793       0.86407352       0.64542158 </v>
    <v>       0.26439750       0.46748670       0.64536970 </v>
    <v>       0.66752030       0.06224796       0.64540676 </v>
    <v>       0.06670316       0.15626494       0.64539853 </v>
    <v>       0.06696589       0.67504827       0.64540815 </v>
    <v>       0.45821830       0.25784179       0.64537088 </v>
    <v>       0.46614710       0.76935518       0.64541339 </v>
    <v>       0.66259706       0.56507403       0.64539478 </v>
    <v>       0.05545589       0.91338359       0.14547139 </v>
    <v>       0.66137015       0.81493036       0.14547705 </v>
    <v>       0.27142733       0.96268600       0.64546333 </v>
   </varray>
  </structure>
  <varray name="forces" >
   <v>       0.00716305      -0.00458579       0.00006251 </v>
   <v>       0.00076812       0.00483406       0.00003222 </v>
   <v>       0.00317371       0.00265462      -0.00018615 </v>
   <v>       0.00551330      -0.00629086       0.00019728 </v>
   <v>      -0.00448064      -0.00595610       0.00017348 </v>
   <v>      -0.00130322       0.00910847       0.00000374 </v>
   <v>       0.00892866       0.00506339      -0.00009262 </v>
   <v>       0.00891058       0.00207400       0.00017548 </v>
   <v>      -0.00003148      -0.00325580       0.00022711 </v>
   <v>      -0.00737146      -0.00605457      -0.00014847 </v>
   <v>      -0.00811604       0.00940693       0.00025911 </v>
   <v>       0.00323818      -0.00500683      -0.00004046 </v>
   <v>      -0.01045352       0.00061093      -0.00005472 </v>
   <v>      -0.00400591      -0.00319006      -0.00009209 </v>
   <v>       0.00053522      -0.00761740       0.00012852 </v>
   <v>      -0.00864966       0.00157879      -0.00001072 </v>
   <v>       0.00668411       0.00134390       0.00016646 </v>
   <v>       0.01081148       0.00657117      -0.00025976 </v>
   <v>      -0.00251924      -0.00445927      -0.00018411 </v>
   <v>      -0.00879524       0.00317043      -0.00035681 </v>
  </varray>
  <varray name="stress" >
   <v>      -0.28117156      -0.13585216       0.00022233 </v>
   <v>      -0.13585217      -0.04270537       0.00036258 </v>
   <v>       0.00022233       0.00036271      -0.68425830 </v>
  </varray>
  <energy>
   <i name="e_fr_energy">   -178.15580517 </i>
   <i name="e_wo_entrp">   -178.09783024 </i>
   <i name="e_0_energy">     -0.11594985 </i>
  </energy>
  <time name="totalsc">    4.48    4.49</time>
 </calculation>
 <calculation>
  <scstep>
   <time name="dav">    1.21    1.21</time>
   <time name="total">    1.31    1.31</time>
   <energy>
    <i name="alphaZ">    569.59707046 </i>
    <i name="ewald">  -5315.32659800 </i>
    <i name="hartreedc">   -664.66603646 </i>
    <i name="XCdc">   -767.84296536 </i>
    <i name="pawpsdc">   7807.17750650 </i>
    <i name="pawaedc">  -7005.02419733 </i>
    <i name="eentropy">     -0.11587765 </i>
    <i name="bandstr">    510.56095338 </i>
    <i name="atom">   4687.48422623 </i>
    <i name="e_fr_energy">   -178.15591823 </i>
    <i name="e_wo_entrp">   -178.04004058 </i>
    <i name="e_0_energy">   -178.09797940 </i>
   </energy>
  </scstep>
  <scstep>
   <time name="dav">    2.02    2.02</time>
   <time name="total">    2.11    2.11</time>
   <energy>
    <i name="e_fr_energy">   -178.16464109 </i>
    <i name="e_wo_entrp">   -178.04695824 </i>
    <i name="e_0_energy">   -178.10579966 </i>
   </energy>
  </scstep>
  <scstep>
   <time name="dav">    2.10    2.10</time>
   <time name="total">    2.19    2.20</time>
   <energy>
    <i name="e_fr_energy">   -178.15574205 </i>
    <i name="e_wo_entrp">   -178.03979271 </i>
    <i name="e_0_energy">   -178.09776738 </i>
   </energy>
  </scstep>
  <scstep>
   <time name="dav">    1.82    1.83</time>
   <time name="total">    1.92    1.92</time>
   <energy>
    <i name="e_fr_energy">   -178.15576370 </i>
    <i name="e_wo_entrp">   -178.03973348 </i>
    <i name="e_0_energy">   -178.09774859 </i>
   </energy>
  </scstep>
  <scstep>
   <time name="dav">    1.83    1.83</time>
   <time name="total">    1.92    1.93</time>
   <energy>
    <i name="e_fr_energy">   -178.15577156 </i>
    <i name="e_wo_entrp">   -178.03979328 </i>
    <i name="e_0_energy">   -178.09778242 </i>
   </energy>
  </scstep>
  <scstep>
   <time name="dav">    1.83    1.83</time>
   <time name="total">    1.93    1.93</time>
   <energy>
    <i name="e_fr_energy">   -178.15573082 </i>
    <i name="e_wo_entrp">   -178.03970859 </i>
    <i name="e_0_energy">   -178.09771970 </i>
   </energy>
  </scstep>
  <scstep>
   <time name="dav">    1.24    1.24</time>
   <time name="total">    1.28    1.29</time>
   <energy>
    <i name="alphaZ">    569.59707046 </i>
    <i name="ewald">  -5315.32659800 </i>
    <i name="hartreedc">   -664.95187149 </i>
    <i name="XCdc">   -767.83747256 </i>
    <i name="pawpsdc">   7803.02766569 </i>
    <i name="pawaedc">  -7000.85480407 </i>
    <i name="eentropy">     -0.11605752 </i>
    <i name="bandstr">    510.82211262 </i>
    <i name="atom">   4687.48422623 </i>
    <i name="e_fr_energy">   -178.15572865 </i>
    <i name="e_wo_entrp">   -178.03967113 </i>
    <i name="e_0_energy">   -178.09769989 </i>
   </energy>
  </scstep>
  <structure>
   <crystal>
    <varray name="basis" >
     <v>       7.54956595      -0.14084625       0.00004182 </v>
     <v>      -2.07197863       7.92856306      -0.00003150 </v>
     <v>      -0.00018462      -0.00005398       4.21846020 </v>
    </varray>
    <i name="volume">    251.27418187 </i>
    <varray name="rec_basis" >
     <v>       0.13310690       0.03478495       0.00000627 </v>
     <v>       0.00236457       0.12674419       0.00000173 </v>
     <v>      -0.00000130       0.00000060       0.23705332 </v>
    </varray>
   </crystal>
   <varray name="positions" >
    <v>       0.86143013       0.62003864       0.14539238 </v>
    <v>       0.86199327       0.10537902       0.14539808 </v>
    <v>       0.25517103       0.71982185       0.14541269 </v>
    <v>       0.46685255       0.52171939       0.14538407 </v>
    <v>       0.65948613       0.30991557       0.14537308 </v>
    <v>       0.25973966       0.20689467       0.14538578 </v>
    <v>       0.45710756       0.00774558       0.14540496 </v>
    <v>       0.06126966       0.41365845       0.14535928 </v>
    <v>       0.86337999       0.36288495       0.64536547 </v>
    <v>       0.86680701       0.86410515       0.64542214 </v>
    <v>       0.26439448       0.46743243       0.64536768 </v>
    <v>       0.66749109       0.06226861       0.64540711 </v>
    <v>       0.06671988       0.15626562       0.64539866 </v>
    <v>       0.06700252       0.67505886       0.64540869 </v>
    <v>       0.45822155       0.25789416       0.64537000 </v>
    <v>       0.46621522       0.76935363       0.64541339 </v>
    <v>       0.66257854       0.56507603       0.64539351 </v>
    <v>       0.05541935       0.91336336       0.14547405 </v>
    <v>       0.66139108       0.81495594       0.14547872 </v>
    <v>       0.27143629       0.96265810       0.64546727 </v>
   </varray>
  </structure>
  <varray name="forces" >
   <v>       0.00874744      -0.00123309       0.00005688 </v>
   <v>       0.00107851       0.00240206       0.00002589 </v>
   <v>       0.00098887       0.00584732      -0.00018412 </v>
   <v>       0.00814715      -0.00394562       0.00021817 </v>
   <v>      -0.00476521      -0.00592541       0.00019751 </v>
   <v>      -0.00436551       0.00748583       0.00002604 </v>
   <v>       0.01139920       0.00296820      -0.00009956 </v>
   <v>       0.00976821       0.00244726       0.00021675 </v>
   <v>      -0.00262712      -0.00581120       0.00025727 </v>
   <v>      -0.00782471      -0.00499639      -0.00013136 </v>
   <v>      -0.00988407       0.01049889       0.00028582 </v>
   <v>       0.00458757      -0.00403883      -0.00003812 </v>
   <v>      -0.00976346      -0.00236970      -0.00004860 </v>
   <v>      -0.00319016      -0.00131659      -0.00007627 </v>
   <v>       0.00212134      -0.01341246       0.00013887 </v>
   <v>      -0.01204532       0.00394645       0.00001186 </v>
   <v>       0.00868557       0.00227572       0.00019007 </v>
   <v>       0.01078768       0.00636186      -0.00032071 </v>
   <v>      -0.00322106      -0.00474626      -0.00025232 </v>
   <v>      -0.00862492       0.00356194      -0.00047406 </v>
  </varray>
  <varray name="stress" >
   <v>      -0.63998673      -0.10706854      -0.00046606 </v>
   <v>      -0.10706848      -0.34585021       0.00053888 </v>
   <v>      -0.00046602       0.00053879      -0.95628179 </v>
  </varray>
  <energy>
   <i name="e_fr_energy">   -178.15572865 </i>
   <i name="e_wo_entrp">   -178.09769989 </i>
   <i name="e_0_energy">     -0.11605752 </i>
  </energy>
