unknown system                          
           1
     6.600969    0.000000    0.000000
    -1.735063    9.173593    0.000000
    -0.000190   -0.000044    4.278321
   V    Fe
  17   3
Direct configuration=     1
   0.86157000  0.62068600  0.14541900
   0.86201500  0.10541200  0.14545200
   0.25537500  0.71999800  0.14540400
   0.46651500  0.52155400  0.14542900
   0.65965000  0.31023000  0.14545100
   0.25996200  0.20648800  0.14546400
   0.45724000  0.00734100  0.14542000
   0.06117200  0.41372600  0.14544400
   0.86347400  0.36322900  0.64541900
   0.86679600  0.86436300  0.64537200
   0.26435600  0.46710900  0.64544200
   0.66741400  0.06196800  0.64538900
   0.06663500  0.15623300  0.64541100
   0.06681800  0.67526000  0.64537600
   0.45836200  0.25733000  0.64543000
   0.46608300  0.76929900  0.64537500
   0.66260700  0.56536300  0.64539200
   0.05527400  0.91338100  0.14534600
   0.66139000  0.81517800  0.14533700
   0.27139900  0.96234200  0.64530500
unknown system                          
           1
     6.997603    0.109526    0.000048
    -1.687106    8.603459    0.000035
    -0.000171   -0.000023    4.205809
   V    Fe
  17   3
Direct configuration=     2
   0.86039329  0.62118066  0.14540929
   0.86350902  0.10450941  0.14543241
   0.25523933  0.72055420  0.14539451
   0.46483139  0.52087943  0.14542828
   0.65877332  0.31095725  0.14544607
   0.25886788  0.20774363  0.14545076
   0.45448679  0.00575198  0.14540204
   0.06214531  0.41326803  0.14544441
   0.86349517  0.36288283  0.64542982
   0.87121384  0.86664238  0.64537293
   0.26362747  0.46696743  0.64544213
   0.66599189  0.06131810  0.64541118
   0.06579091  0.15602301  0.64542872
   0.06599835  0.67353652  0.64539328
   0.46072241  0.25841583  0.64544244
   0.46719564  0.77035135  0.64538416
   0.66490331  0.56499874  0.64540717
   0.05605414  0.91271731  0.14532605
   0.66065870  0.81610483  0.14532361
   0.27020885  0.96168709  0.64530774
unknown system                          
           1
     7.211395    0.168562    0.000073
    -1.661257    8.296146    0.000053
    -0.000161   -0.000011    4.166724
   V    Fe
  17   3
Direct configuration=     3
   0.85979924  0.62147253  0.14540397
   0.86426193  0.10398107  0.14542167
   0.25517328  0.72087470  0.14538930
   0.46397464  0.52050263  0.14542789
   0.65833248  0.31138084  0.14544336
   0.25831942  0.20847227  0.14544350
   0.45308337  0.00485657  0.14539222
   0.06263645  0.41299856  0.14544464
   0.86350421  0.36268376  0.64543576
   0.87346446  0.86792377  0.64537340
   0.26325747  0.46689077  0.64544221
   0.66526782  0.06095380  0.64542335
   0.06536200  0.15590778  0.64543844
   0.06557441  0.67255137  0.64540276
   0.46192424  0.25902460  0.64544924
   0.46776481  0.77094893  0.64538917
   0.66606554  0.56477459  0.64541548
   0.05644635  0.91233087  0.14531511
   0.66029254  0.81664218  0.14531627
   0.26960234  0.96131841  0.64530925
unknown system                          
           1
     7.638980    0.286635    0.000124
    -1.609557    7.681522    0.000091
    -0.000141    0.000012    4.088554
   V    Fe
  17   3
Direct configuration=     4
   0.85865100  0.62208553  0.14539323
   0.86571564  0.10287559  0.14539998
   0.25504846  0.72154026  0.14537878
   0.46231079  0.51973231  0.14542713
   0.65748244  0.31226503  0.14543790
   0.25726383  0.20999050  0.14542884
   0.45035511  0.00301780  0.14537241
   0.06358547  0.41243335  0.14544509
   0.86351976  0.36227079  0.64544775
   0.87783815  0.87055205  0.64537432
   0.26253977  0.46673659  0.64544237
   0.66386120  0.06020766  0.64544793
   0.06452977  0.15567437  0.64545808
   0.06474323  0.67051377  0.64542193
   0.46425906  0.26027154  0.64546296
   0.46887358  0.77218086  0.64539928
   0.66831542  0.56429466  0.64543224
   0.05720253  0.91152435  0.14529303
   0.65958832  0.81776132  0.14530146
   0.26842346  0.96056168  0.64531231
unknown system                          
           1
     7.315814    0.197396    0.000086
    -1.648631    8.146051    0.000063
    -0.000156   -0.000005    4.147635
   V    Fe
  17   3
Direct configuration=     5
   0.85946321  0.62157389  0.14540150
   0.86468985  0.10379212  0.14541669
   0.25513222  0.72099593  0.14538689
   0.46350027  0.52034431  0.14542770
   0.65808046  0.31153507  0.14544211
   0.25800328  0.20874113  0.14544013
   0.45230988  0.00449104  0.14538763
   0.06291462  0.41290401  0.14544475
   0.86351182  0.36260792  0.64543851
   0.87470686  0.86845098  0.64537367
   0.26305150  0.46685525  0.64544224
   0.66486750  0.06080249  0.64542898
   0.06512358  0.15585654  0.64544295
   0.06534995  0.67216814  0.64540714
   0.46258866  0.25927731  0.64545242
   0.46807549  0.77118667  0.64539151
   0.66671851  0.56470868  0.64541934
   0.05667069  0.91218999  0.14531004
   0.66008083  0.81684110  0.14531287
   0.26926783  0.96116742  0.64530994
unknown system                          
           1
     7.543221    0.092074    0.000134
    -1.817335    8.152802    0.000030
    -0.000134   -0.000015    4.182189
   V    Fe
  17   3
Direct configuration=     6
   0.86001524  0.62155756  0.14539173
   0.86210961  0.10439660  0.14540206
   0.25586940  0.71988482  0.14537285
   0.46527092  0.52125734  0.14541268
   0.65777349  0.31158002  0.14542826
   0.25726599  0.20748859  0.14542030
   0.45372323  0.00732055  0.14537595
   0.06217329  0.41287072  0.14542852
   0.86346433  0.36315530  0.64543139
   0.87090948  0.86637509  0.64536053
   0.26372799  0.46595877  0.64543083
   0.66532772  0.06083676  0.64540283
   0.06502268  0.15706956  0.64541592
   0.06749046  0.67335244  0.64539051
   0.46112260  0.25834447  0.64543026
   0.46834569  0.76927992  0.64537944
   0.66662778  0.56554660  0.64540740
   0.05677616  0.91156587  0.14538569
   0.66049936  0.81655628  0.14542008
   0.27059158  0.96209274  0.64538978
unknown system                          
           1
     7.472580    0.124791    0.000119
    -1.764930    8.150705    0.000040
    -0.000141   -0.000012    4.171455
   V    Fe
  17   3
Direct configuration=     7
   0.85984849  0.62156036  0.14539474
   0.86288537  0.10421963  0.14540655
   0.25565421  0.72022657  0.14537718
   0.46472945  0.52096675  0.14541731
   0.65786596  0.31156733  0.14543253
   0.25749745  0.20788028  0.14542641
   0.45327660  0.00643674  0.14537955
   0.06239759  0.41288409  0.14543352
   0.86347493  0.36298564  0.64543358
   0.87207154  0.86703484  0.64536457
   0.26352967  0.46623417  0.64543435
   0.66518838  0.06082424  0.64541089
   0.06504485  0.15669358  0.64542424
   0.06683533  0.67297616  0.64539564
   0.46157214  0.25863995  0.64543708
   0.46827712  0.76987048  0.64538316
   0.66664945  0.56528696  0.64541108
   0.05674857  0.91175910  0.14536239
   0.66037481  0.81664294  0.14538705
   0.27018510  0.96180018  0.64536519
unknown system                          
           1
     7.495584    0.000387    0.000137
    -1.904731    8.071348   -0.000004
    -0.000130   -0.000029    4.146995
   V    Fe
  17   3
Direct configuration=     8
   0.86123667  0.62201550  0.14538588
   0.86051422  0.10462491  0.14539149
   0.25584813  0.71931313  0.14536763
   0.46685894  0.52211459  0.14540583
   0.65791185  0.31148278  0.14541757
   0.25688680  0.20626284  0.14540373
   0.45519815  0.00878993  0.14537371
   0.06124539  0.41274996  0.14541187
   0.86329668  0.36375695  0.64541867
   0.86816502  0.86488633  0.64536505
   0.26479384  0.46541253  0.64541671
   0.66563744  0.06123823  0.64538756
   0.06519106  0.15736772  0.64539518
   0.06885460  0.67447720  0.64538054
   0.45912052  0.25733348  0.64541222
   0.46831290  0.76837898  0.64537427
   0.66610939  0.56589045  0.64539816
   0.05645144  0.91153695  0.14543655
   0.66088486  0.81620445  0.14549403
   0.27158909  0.96265309  0.64544033
unknown system                          
           1
     7.500600   -0.026744    0.000141
    -1.935220    8.054041   -0.000013
    -0.000128   -0.000033    4.141660
   V    Fe
  17   3
Direct configuration=     9
   0.86154177  0.62212040  0.14538394
   0.85999854  0.10470619  0.14538819
   0.25588624  0.71911262  0.14536554
   0.46732904  0.52237453  0.14540331
   0.65792148  0.31146432  0.14541429
   0.25674605  0.20590458  0.14539875
   0.45562842  0.00931463  0.14537243
   0.06099327  0.41271655  0.14540712
   0.86326134  0.36392622  0.64541540
   0.86730243  0.86440004  0.64536516
   0.26506598  0.46523583  0.64541284
   0.66573737  0.06133091  0.64538244
   0.06522609  0.15751668  0.64538881
   0.06930227  0.67481457  0.64537723
   0.45857937  0.25703751  0.64540676
   0.46831384  0.76805062  0.64537232
   0.66599430  0.56602154  0.64539533
   0.05638557  0.91148703  0.14545282
   0.66099417  0.81610959  0.14551750
   0.27189947  0.96284565  0.64545682
unknown system                          
           1
     7.550898   -0.094912    0.000151
    -2.021402    8.052026   -0.000047
    -0.000124   -0.000048    4.164439
   V    Fe
  17   3
Direct configuration=    10
   0.86347743  0.62235119  0.14537573
   0.85923393  0.10480029  0.14537484
   0.25626404  0.71932048  0.14537153
   0.46810451  0.52241621  0.14539579
   0.65862948  0.31139719  0.14539596
   0.25697449  0.20515242  0.14538982
   0.45671598  0.00893611  0.14538057
   0.06030867  0.41273934  0.14538675
   0.86313044  0.36440056  0.64539411
   0.86607090  0.86404139  0.64538699
   0.26584200  0.46514844  0.64538775
   0.66578572  0.06198774  0.64538596
   0.06512190  0.15687175  0.64537874
   0.06991367  0.67552905  0.64537827
   0.45660269  0.25653182  0.64538554
   0.46783776  0.76799462  0.64537829
   0.66470948  0.56596352  0.64539402
   0.05587980  0.91199906  0.14549608
   0.66166064  0.81599796  0.14555452
   0.27184348  0.96291085  0.64548574
unknown system                          
           1
     7.549120   -0.092503    0.000150
    -2.018356    8.052098   -0.000046
    -0.000124   -0.000047    4.163634
   V    Fe
  17   3
Direct configuration=    11
   0.86340921  0.62234246  0.14537601
   0.85926080  0.10479719  0.14537531
   0.25625066  0.71931302  0.14537132
   0.46807720  0.52241450  0.14539606
   0.65860459  0.31139935  0.14539661
   0.25696675  0.20517895  0.14539014
   0.45667786  0.00894917  0.14538029
   0.06033276  0.41273874  0.14538747
   0.86313485  0.36438383  0.64539486
   0.86611438  0.86405444  0.64538622
   0.26581472  0.46515130  0.64538863
   0.66578375  0.06196450  0.64538583
   0.06512583  0.15689459  0.64537909
   0.06989187  0.67550360  0.64537823
   0.45667245  0.25655029  0.64538628
   0.46785454  0.76799674  0.64537808
   0.66475472  0.56596596  0.64539407
   0.05589739  0.91198111  0.14549456
   0.66163723  0.81600171  0.14555321
   0.27184543  0.96290856  0.64548473
unknown system                          
           1
     7.561082   -0.151145    0.000140
    -2.084739    8.000172   -0.000061
    -0.000130   -0.000055    4.173187
   V    Fe
  17   3
Direct configuration=    12
   0.86528632  0.62232110  0.14536946
   0.85916126  0.10482493  0.14536681
   0.25682450  0.71991187  0.14538421
   0.46826057  0.52179021  0.14538802
   0.65955056  0.31125303  0.14537396
   0.25778381  0.20485491  0.14538454
   0.45748169  0.00761604  0.14539435
   0.06000592  0.41288427  0.14536199
   0.86308449  0.36454569  0.64536717
   0.86599845  0.86441566  0.64541659
   0.26600047  0.46560070  0.64535929
   0.66592671  0.06278778  0.64540273
   0.06481160  0.15564274  0.64537565
   0.06976317  0.67601690  0.64539085
   0.45526185  0.25643346  0.64536461
   0.46706858  0.76857843  0.64539476
   0.66307079  0.56574070  0.64539735
   0.05514175  0.91280814  0.14552773
   0.66228659  0.81592096  0.14555722
   0.27133791  0.96254248  0.64549974
unknown system                          
           1
     7.559893   -0.145318    0.000141
    -2.078144    8.005331   -0.000059
    -0.000129   -0.000054    4.172238
   V    Fe
  17   3
Direct configuration=    13
   0.86509976  0.62232187  0.14537011
   0.85917113  0.10482223  0.14536765
   0.25676683  0.71985156  0.14538293
   0.46824300  0.52185252  0.14538882
   0.65945669  0.31126697  0.14537620
   0.25770294  0.20488672  0.14538509
   0.45740320  0.00774879  0.14539295
   0.06003825  0.41286996  0.14536452
   0.86308933  0.36452954  0.64536991
   0.86600959  0.86437962  0.64541358
   0.26598153  0.46555562  0.64536219
   0.66591163  0.06270533  0.64540105
   0.06484415  0.15576818  0.64537599
   0.06977542  0.67596565  0.64538960
   0.45540218  0.25644617  0.64536676
   0.46714609  0.76852082  0.64539311
   0.66323840  0.56576446  0.64539703
   0.05521599  0.91272597  0.14552444
   0.66222213  0.81592856  0.14555682
   0.27138875  0.96257947  0.64549825
unknown system                          
           1
     7.558693   -0.139713    0.000126
    -2.072272    7.984858   -0.000028
    -0.000137   -0.000040    4.175981
   V    Fe
  17   3
Direct configuration=    14
   0.86424645  0.62184470  0.14537515
   0.85972413  0.10505777  0.14537805
   0.25684452  0.71986019  0.14538926
   0.46774091  0.52126199  0.14538609
   0.65935288  0.31110891  0.14537017
   0.25824900  0.20536687  0.14538567
   0.45710330  0.00762219  0.14539830
   0.06055733  0.41300743  0.14535791
   0.86322350  0.36418945  0.64536480
   0.86659453  0.86457859  0.64541755
   0.26527199  0.46605443  0.64535980
   0.66615796  0.06272767  0.64540807
   0.06478850  0.15550497  0.64538094
   0.06912342  0.67576495  0.64539783
   0.45639861  0.25685599  0.64536718
   0.46707393  0.76891047  0.64540206
   0.66325700  0.56577043  0.64539790
   0.05522626  0.91294646  0.14551629
   0.66202100  0.81573912  0.14553129
   0.27115176  0.96231743  0.64549271
unknown system                          
           1
     7.557547   -0.134367    0.000111
    -2.066671    7.965331    0.000003
    -0.000145   -0.000026    4.179551
   V    Fe
  17   3
Direct configuration=    15
   0.86343261  0.62138898  0.14537995
   0.86025156  0.10528263  0.14538797
   0.25691861  0.71986839  0.14539528
   0.46726207  0.52069762  0.14538349
   0.65925387  0.31095783  0.14536442
   0.25876979  0.20582564  0.14538623
   0.45681727  0.00750133  0.14540339
   0.06105240  0.41313855  0.14535161
   0.86335150  0.36386415  0.64535992
   0.86715242  0.86476847  0.64542134
   0.26459520  0.46653190  0.64535751
   0.66639291  0.06274886  0.64541475
   0.06473543  0.15525331  0.64538565
   0.06850157  0.67557347  0.64540568
   0.45734896  0.25724721  0.64536759
   0.46700508  0.76928313  0.64541059
   0.66327474  0.56577612  0.64539873
   0.05523605  0.91315730  0.14550852
   0.66182919  0.81555810  0.14550695
   0.27092575  0.96206701  0.64548743
unknown system                          
           1
     7.564452   -0.133148    0.000101
    -2.067330    7.962228    0.000008
    -0.000151   -0.000025    4.191521
   V    Fe
  17   3
Direct configuration=    16
   0.86269659  0.62092608  0.14538500
   0.86074160  0.10547186  0.14539577
   0.25669990  0.71978393  0.14540110
   0.46688505  0.52044391  0.14538133
   0.65920733  0.31074451  0.14536086
   0.25921588  0.20621824  0.14538566
   0.45663714  0.00754111  0.14540700
   0.06138549  0.41327587  0.14534725
   0.86347763  0.36359931  0.64535709
   0.86741808  0.86477052  0.64542266
   0.26416499  0.46684508  0.64535672
   0.66663585  0.06269228  0.64541691
   0.06501467  0.15530716  0.64538986
   0.06799863  0.67539915  0.64541002
   0.45796666  0.25761279  0.64536781
   0.46694189  0.76948310  0.64541506
   0.66319062  0.56568156  0.64539725
   0.05529217  0.91329160  0.14550193
   0.66168285  0.81540096  0.14549177
   0.27085397  0.96200100  0.64548596
unknown system                          
           1
     7.564527   -0.133134    0.000101
    -2.067337    7.962195    0.000008
    -0.000151   -0.000025    4.191651
   V    Fe
  17   3
Direct configuration=    17
   0.86268860  0.62092105  0.14538505
   0.86074692  0.10547392  0.14539585
   0.25669753  0.71978302  0.14540116
   0.46688096  0.52044116  0.14538131
   0.65920682  0.31074220  0.14536082
   0.25922072  0.20622251  0.14538565
   0.45663519  0.00754154  0.14540704
   0.06138911  0.41327736  0.14534720
   0.86347900  0.36359643  0.64535706
   0.86742096  0.86477054  0.64542267
   0.26416032  0.46684848  0.64535671
   0.66663848  0.06269166  0.64541694
   0.06501770  0.15530774  0.64538991
   0.06799318  0.67539725  0.64541006
   0.45797337  0.25761676  0.64536782
   0.46694120  0.76948527  0.64541511
   0.66318971  0.56568053  0.64539723
   0.05529278  0.91329306  0.14550186
   0.66168126  0.81539925  0.14549160
   0.27085319  0.96200028  0.64548594
unknown system                          
           1
     7.558436   -0.135414    0.000092
    -2.068171    7.956521   -0.000006
    -0.000156   -0.000033    4.197734
   V    Fe
  17   3
Direct configuration=    18
   0.86234539  0.62067672  0.14538799
   0.86102086  0.10551416  0.14539838
   0.25632345  0.71969170  0.14540437
   0.46677490  0.52059905  0.14538096
   0.65924059  0.31055376  0.14536152
   0.25940668  0.20639467  0.14538465
   0.45664753  0.00766431  0.14540768
   0.06142191  0.41336499  0.14534693
   0.86353358  0.36346745  0.64535738
   0.86733446  0.86462840  0.64542193
   0.26414368  0.46693154  0.64535799
   0.66681319  0.06260335  0.64541478
   0.06544614  0.15556725  0.64539198
   0.06778505  0.67531799  0.64541019
   0.45804861  0.25777515  0.64536787
   0.46686648  0.76946654  0.64541487
   0.66303516  0.56553384  0.64539513
   0.05532441  0.91330545  0.14549743
   0.66162243  0.81531739  0.14548894
   0.27097249  0.96211628  0.64548603
unknown system                          
           1
     7.542318   -0.141445    0.000069
    -2.070378    7.941510   -0.000043
    -0.000169   -0.000056    4.213830
   V    Fe
  17   3
Direct configuration=    19
   0.86143625  0.62002947  0.14539573
   0.86174638  0.10562093  0.14540508
   0.25533267  0.71944961  0.14541287
   0.46649413  0.52101706  0.14538003
   0.65932986  0.31005483  0.14536336
   0.25989933  0.20685070  0.14538202
   0.45668031  0.00798940  0.14540938
   0.06150885  0.41359705  0.14534623
   0.86367803  0.36312598  0.64535824
   0.86710525  0.86425196  0.64541996
   0.26409967  0.46715147  0.64536138
   0.66727582  0.06236963  0.64540909
   0.06658104  0.15625474  0.64539744
   0.06723380  0.67510795  0.64541051
   0.45824802  0.25819461  0.64536800
   0.46666858  0.76941689  0.64541423
   0.66262574  0.56514528  0.64538956
   0.05540818  0.91333829  0.14548572
   0.66146653  0.81510057  0.14548190
   0.27128855  0.96242354  0.64548627
unknown system                          
           1
     7.544171   -0.140751    0.000071
    -2.070125    7.943235   -0.000039
    -0.000168   -0.000054    4.211980
   V    Fe
  17   3
Direct configuration=    20
   0.86154108  0.62010411  0.14539485
   0.86166276  0.10560857  0.14540431
   0.25544687  0.71947759  0.14541190
   0.46652645  0.52096894  0.14538014
   0.65931962  0.31011229  0.14536315
   0.25984252  0.20679813  0.14538232
   0.45667650  0.00795195  0.14540919
   0.06149881  0.41357031  0.14534631
   0.86366142  0.36316530  0.64535814
   0.86713170  0.86429535  0.64542019
   0.26410472  0.46712614  0.64536099
   0.66722253  0.06239651  0.64540974
   0.06645019  0.15617545  0.64539681
   0.06729735  0.67513219  0.64541047
   0.45822500  0.25814628  0.64536799
   0.46669139  0.76942263  0.64541430
   0.66267296  0.56519008  0.64539020
   0.05539852  0.91333450  0.14548706
   0.66148452  0.81512556  0.14548271
   0.27125209  0.96238812  0.64548624
unknown system                          
           1
     7.546691   -0.140796    0.000058
    -2.070990    7.936383   -0.000035
    -0.000176   -0.000054    4.215006
   V    Fe
  17   3
Direct configuration=    21
   0.86148926  0.62007355  0.14539369
   0.86181717  0.10550141  0.14540140
   0.25531800  0.71963832  0.14541227
   0.46667873  0.52131929  0.14538198
   0.65939741  0.31002044  0.14536779
   0.25979446  0.20684321  0.14538393
   0.45687789  0.00785562  0.14540721
   0.06139177  0.41361146  0.14535237
   0.86352997  0.36303441  0.64536156
   0.86698003  0.86420653  0.64542110
   0.26424005  0.46726915  0.64536411
   0.66734799  0.06233680  0.64540851
   0.06657615  0.15621754  0.64539767
   0.06715962  0.67509795  0.64540964
   0.45822340  0.25802855  0.64536893
   0.46646895  0.76939042  0.64541388
   0.66262887  0.56513684  0.64539175
   0.05540826  0.91334799  0.14548098
   0.66144088  0.81504636  0.14548084
   0.27133811  0.96251417  0.64547737
unknown system                          
           1
     7.549566   -0.140846    0.000042
    -2.071979    7.928563   -0.000032
    -0.000185   -0.000054    4.218460
   V    Fe
  17   3
Direct configuration=    22
   0.86143014  0.62003863  0.14539238
   0.86199329  0.10537901  0.14539808
   0.25517104  0.71982191  0.14541269
   0.46685259  0.52171946  0.14538407
   0.65948612  0.30991552  0.14537308
   0.25973966  0.20689471  0.14538578
   0.45710761  0.00774558  0.14540496
   0.06126968  0.41365847  0.14535928
   0.86337996  0.36288489  0.64536547
   0.86680696  0.86410509  0.64542214
   0.26439451  0.46743251  0.64536768
   0.66749111  0.06226859  0.64540711
   0.06671987  0.15626562  0.64539866
   0.06700249  0.67505884  0.64540869
   0.45822153  0.25789408  0.64537000
   0.46621517  0.76935363  0.64541339
   0.66257855  0.56507602  0.64539352
   0.05541938  0.91336340  0.14547405
   0.66139106  0.81495590  0.14547872
   0.27143630  0.96265814  0.64546726
unknown system                          
           1
     7.547011   -0.141230    0.000034
    -2.071787    7.922861   -0.000027
    -0.000189   -0.000053    4.217067
   V    Fe
  17   3
Direct configuration=    23
   0.86148185  0.62001622  0.14539274
   0.86207899  0.10535721  0.14539727
   0.25514082  0.71993389  0.14541022
   0.46697546  0.52183705  0.14538800
   0.65946252  0.30982539  0.14537790
   0.25971278  0.20697804  0.14538691
   0.45729860  0.00773282  0.14540264
   0.06129895  0.41369204  0.14536503
   0.86329841  0.36279363  0.64537063
   0.86667276  0.86401865  0.64542061
   0.26440273  0.46758088  0.64537319
   0.66757095  0.06221213  0.64540613
   0.06667414  0.15626375  0.64539831
   0.06690235  0.67502990  0.64540721
   0.45821266  0.25775093  0.64537241
   0.46602893  0.76935786  0.64541339
   0.66262920  0.56507056  0.64539698
   0.05551930  0.91341868  0.14546676
   0.66133384  0.81488598  0.14547416
   0.27141177  0.96273440  0.64545651
unknown system                          
           1
     7.548299   -0.141037    0.000038
    -2.071884    7.925735   -0.000029
    -0.000187   -0.000053    4.217769
   V    Fe
  17   3
Direct configuration=    24
   0.86145578  0.62002752  0.14539256
   0.86203578  0.10536820  0.14539768
   0.25515605  0.71987741  0.14541146
   0.46691350  0.52177773  0.14538602
   0.65947442  0.30987085  0.14537547
   0.25972633  0.20693601  0.14538634
   0.45720230  0.00773925  0.14540381
   0.06128419  0.41367511  0.14536213
   0.86333953  0.36283966  0.64536803
   0.86674043  0.86406226  0.64542138
   0.26439857  0.46750604  0.64537041
   0.66753070  0.06224060  0.64540663
   0.06669720  0.15626469  0.64539849
   0.06695284  0.67504450  0.64540796
   0.45821714  0.25782313  0.64537120
   0.46612283  0.76935573  0.64541339
   0.66260366  0.56507332  0.64539523
   0.05546892  0.91339079  0.14547044
   0.66136269  0.81492125  0.14547646
   0.27142413  0.96269594  0.64546193
unknown system                          
           1
     7.548593   -0.140992    0.000039
    -2.071906    7.926392   -0.000030
    -0.000186   -0.000054    4.217930
   V    Fe
  17   3
Direct configuration=    25
   0.86144982  0.62003011  0.14539252
   0.86202590  0.10537072  0.14539777
   0.25515953  0.71986449  0.14541175
   0.46689933  0.52176417  0.14538557
   0.65947715  0.30988125  0.14537491
   0.25972943  0.20692640  0.14538621
   0.45718028  0.00774072  0.14540408
   0.06128081  0.41367124  0.14536147
   0.86334894  0.36285019  0.64536743
   0.86675591  0.86407223  0.64542156
   0.26439762  0.46748893  0.64536978
   0.66752149  0.06224711  0.64540674
   0.06670247  0.15626491  0.64539853
   0.06696439  0.67504784  0.64540813
   0.45821817  0.25783964  0.64537092
   0.46614431  0.76935524  0.64541339
   0.66259782  0.56507395  0.64539483
   0.05545739  0.91338442  0.14547128
   0.66136929  0.81492931  0.14547698
   0.27142696  0.96268714  0.64546317
unknown system                          
           1
     7.549080   -0.140919    0.000040
    -2.071942    7.927478   -0.000031
    -0.000185   -0.000054    4.218195
   V    Fe
  17   3
Direct configuration=    26
   0.86143997  0.62003437  0.14539245
   0.86200958  0.10537487  0.14539792
   0.25516528  0.71984317  0.14541222
   0.46687594  0.52174178  0.14538482
   0.65948164  0.30989841  0.14537400
   0.25973454  0.20691053  0.14538599
   0.45714392  0.00774315  0.14540452
   0.06127524  0.41366484  0.14536037
   0.86336446  0.36286757  0.64536645
   0.86678146  0.86408868  0.64542185
   0.26439605  0.46746068  0.64536873
   0.66750629  0.06225786  0.64540693
   0.06671118  0.15626526  0.64539859
   0.06698345  0.67505335  0.64540841
   0.45821986  0.25786690  0.64537046
   0.46617976  0.76935444  0.64541339
   0.66258818  0.56507499  0.64539417
   0.05543837  0.91337389  0.14547267
   0.66138019  0.81494262  0.14547785
   0.27143163  0.96267262  0.64546522
unknown system                          
           1
     7.548808   -0.140960    0.000039
    -2.071922    7.926871   -0.000030
    -0.000186   -0.000054    4.218047
   V    Fe
  17   3
Direct configuration=    27
   0.86144547  0.62003199  0.14539249
   0.86201870  0.10537255  0.14539784
   0.25516207  0.71985508  0.14541195
   0.46688901  0.52175429  0.14538524
   0.65947913  0.30988882  0.14537451
   0.25973168  0.20691940  0.14538611
   0.45716424  0.00774179  0.14540427
   0.06127835  0.41366841  0.14536098
   0.86335579  0.36285786  0.64536700
   0.86676718  0.86407949  0.64542169
   0.26439693  0.46747647  0.64536932
   0.66751479  0.06225186  0.64540682
   0.06670631  0.15626507  0.64539855
   0.06697280  0.67505027  0.64540825
   0.45821891  0.25785167  0.64537072
   0.46615995  0.76935489  0.64541339
   0.66259357  0.56507440  0.64539454
   0.05544900  0.91337977  0.14547189
   0.66137410  0.81493518  0.14547737
   0.27142902  0.96268073  0.64546408
unknown system                          
           1
     7.548670   -0.140981    0.000039
    -2.071911    7.926564   -0.000030
    -0.000186   -0.000054    4.217972
   V    Fe
  17   3
Direct configuration=    28
   0.86144826  0.62003078  0.14539251
   0.86202332  0.10537137  0.14539779
   0.25516044  0.71986112  0.14541182
   0.46689564  0.52176063  0.14538545
   0.65947786  0.30988396  0.14537477
   0.25973023  0.20692389  0.14538617
   0.45717453  0.00774111  0.14540415
   0.06127993  0.41367023  0.14536129
   0.86335139  0.36285293  0.64536728
   0.86675995  0.86407483  0.64542161
   0.26439737  0.46748447  0.64536961
   0.66751909  0.06224881  0.64540677
   0.06670384  0.15626497  0.64539854
   0.06696740  0.67504871  0.64540817
   0.45821843  0.25784395  0.64537085
   0.46614991  0.76935511  0.64541339
   0.66259630  0.56507411  0.64539473
   0.05545439  0.91338275  0.14547150
   0.66137101  0.81493141  0.14547712
   0.27142770  0.96268485  0.64546350
unknown system                          
           1
     7.548631   -0.140987    0.000039
    -2.071909    7.926478   -0.000030
    -0.000186   -0.000054    4.217951
   V    Fe
  17   3
Direct configuration=    29
   0.86144904  0.62003044  0.14539251
   0.86202461  0.10537105  0.14539778
   0.25515998  0.71986281  0.14541178
   0.46689749  0.52176240  0.14538551
   0.65947750  0.30988260  0.14537484
   0.25972983  0.20692515  0.14538619
   0.45717741  0.00774091  0.14540411
   0.06128037  0.41367073  0.14536138
   0.86335016  0.36285156  0.64536735
   0.86675793  0.86407352  0.64542158
   0.26439750  0.46748670  0.64536970
   0.66752030  0.06224796  0.64540676
   0.06670316  0.15626494  0.64539853
   0.06696589  0.67504827  0.64540815
   0.45821830  0.25784179  0.64537088
   0.46614710  0.76935518  0.64541339
   0.66259706  0.56507403  0.64539478
   0.05545589  0.91338359  0.14547139
   0.66137015  0.81493036  0.14547705
   0.27142733  0.96268600  0.64546333
unknown system                          
           1
     7.548620   -0.140988    0.000039
    -2.071908    7.926453   -0.000030
    -0.000186   -0.000054    4.217945
   V    Fe
  17   3
Direct configuration=    30
   0.86144927  0.62003034  0.14539251
   0.86202499  0.10537095  0.14539778
   0.25515985  0.71986330  0.14541177
   0.46689802  0.52176292  0.14538552
   0.65947740  0.30988221  0.14537486
   0.25972971  0.20692551  0.14538620
   0.45717824  0.00774086  0.14540410
   0.06128050  0.41367088  0.14536141
   0.86334981  0.36285116  0.64536738
   0.86675734  0.86407315  0.64542158
   0.26439753  0.46748735  0.64536972
   0.66752064  0.06224772  0.64540675
   0.06670296  0.15626493  0.64539853
   0.06696546  0.67504815  0.64540815
   0.45821826  0.25784117  0.64537089
   0.46614629  0.76935520  0.64541339
   0.66259728  0.56507400  0.64539480
   0.05545633  0.91338383  0.14547136
   0.66136990  0.81493006  0.14547703
   0.27142722  0.96268633  0.64546329
unknown system                          
           1
     7.548630   -0.140987    0.000039
    -2.071908    7.926474   -0.000030
    -0.000186   -0.000054    4.217950
   V    Fe
  17   3
Direct configuration=    31
   0.86144908  0.62003043  0.14539251
   0.86202467  0.10537103  0.14539778
   0.25515996  0.71986288  0.14541178
   0.46689757  0.52176248  0.14538551
   0.65947749  0.30988254  0.14537484
   0.25972981  0.20692520  0.14538619
   0.45717754  0.00774091  0.14540411
   0.06128039  0.41367075  0.14536138
   0.86335011  0.36285150  0.64536736
   0.86675783  0.86407347  0.64542158
   0.26439750  0.46748680  0.64536970
   0.66752035  0.06224792  0.64540675
   0.06670313  0.15626494  0.64539853